                         Program Version 5.0.3 -  RELEASE  -
|  1> # avogadro generated ORCA input file
|  2> # Basic Mode
|  3> #
|  4> ! RHF SP def2-SVP OPT FREQ
|  5>
|  6> * xyz 0 1
|  7>    C       -1.79103        1.02503       -1.18507
|  8>    C       -1.89231        1.81599       -2.32948
|  9>    C       -0.74431        2.16096       -3.04267
| 10>    H       -2.86564        2.16346       -2.66545
| 11>    C       -0.54175        0.57905       -0.75385
| 12>    H       -2.68545        0.75626       -0.62941
| 13>    N        0.50496        1.71498       -2.61145
| 14>    H       -0.82322        2.77721       -3.93429
| 15>    C        0.60624        0.92402       -1.46704
| 16>    H       -0.46284       -0.03719        0.13777
| 17>    H        1.57957        0.57655       -1.13107
| 18> *
| 19>
| 20>
| 21>                          ****END OF INPUT****
 Total Charge           Charge          ....    0
 Multiplicity           Mult            ....    1
 Number of Electrons    NEL             ....   42
FINAL SINGLE POINT ENERGY      -246.496518601846
FINAL SINGLE POINT ENERGY      -246.511515305858
FINAL SINGLE POINT ENERGY      -246.511773964743
FINAL SINGLE POINT ENERGY      -246.511796923474
FINAL SINGLE POINT ENERGY      -246.511800280956
                    ***********************HURRAY********************

CARTESIAN COORDINATES (ANGSTROEM)
---------------------------------
  C     -1.805365    1.020725   -1.176164
  C     -1.889513    1.806182   -2.315565
  C     -0.714438    2.118672   -2.985872
  H     -2.840443    2.170077   -2.679696
  C     -0.556464    0.585277   -0.760362
  H     -2.696340    0.752986   -0.622647
  N      0.475066    1.705995   -2.592877
  H     -0.744045    2.730699   -3.880150
  C      0.551822    0.958937   -1.508588
  H     -0.439220   -0.029141    0.121695
  H      1.543158    0.635910   -1.211783

 Multiplicity           Mult            ....    1
 Number of Electrons    NEL             ....   42
 Basis Dimension        Dim             ....  109

ORBITAL ENERGIES
----------------

  NO   OCC          E(Eh)            E(eV)
   0   2.0000     -15.557986      -423.3543
   1   2.0000     -11.274803      -306.8030
   2   2.0000     -11.274791      -306.8027
   3   2.0000     -11.261053      -306.4288
   4   2.0000     -11.243798      -305.9593
   5   2.0000     -11.243762      -305.9583
   6   2.0000      -1.257632       -34.2219
   7   2.0000      -1.082084       -29.4450
   8   2.0000      -1.027153       -27.9503
   9   2.0000      -0.854828       -23.2610
  10   2.0000      -0.851817       -23.1791
  11   2.0000      -0.724889       -19.7252
  12   2.0000      -0.669862       -18.2279
  13   2.0000      -0.648565       -17.6484
  14   2.0000      -0.602029       -16.3820
  15   2.0000      -0.578313       -15.7367
  16   2.0000      -0.548012       -14.9122
  17   2.0000      -0.524537       -14.2734
  18   2.0000      -0.413340       -11.2475
  19   2.0000      -0.387679       -10.5493
  20   2.0000      -0.350897        -9.5484
  21   0.0000       0.116344         3.1659
  22   0.0000       0.127487         3.4691
  23   0.0000       0.183675         4.9980
  24   0.0000       0.216463         5.8903
  25   0.0000       0.232501         6.3267

MULLIKEN ATOMIC CHARGES
-----------------------
   0 C :    0.035935
   1 C :   -0.121747
   2 C :    0.143641
   3 H :    0.048286
   4 C :   -0.121747
   5 H :    0.051789
   6 N :   -0.326739
   7 H :    0.049328
   8 C :    0.143641
   9 H :    0.048286
  10 H :    0.049328
Sum of atomic charges:   -0.0000000

LOEWDIN ATOMIC CHARGES
----------------------
   0 C :    0.019710
   1 C :   -0.063119
   2 C :    0.051555
   3 H :    0.029185
   4 C :   -0.063119
   5 H :    0.030832
   6 N :   -0.127289
   7 H :    0.020752
   8 C :    0.051555
   9 H :    0.029185
  10 H :    0.020752

  Mayer bond orders larger than 0.100000
B(  0-C ,  1-C ) :   1.4275 B(  0-C ,  4-C ) :   1.4275 B(  0-C ,  5-H ) :   0.9965
B(  1-C ,  2-C ) :   1.4056 B(  1-C ,  3-H ) :   0.9917 B(  2-C ,  6-N ) :   1.4879
B(  2-C ,  7-H ) :   0.9997 B(  4-C ,  8-C ) :   1.4057 B(  4-C ,  9-H ) :   0.9917
B(  6-N ,  8-C ) :   1.4879 B(  8-C , 10-H ) :   0.9997

FINAL SINGLE POINT ENERGY      -246.511800523438

DIPOLE MOMENT
-------------
                                X             Y             Z
Electronic contribution:      1.05968       0.31843      -0.65832
Nuclear contribution   :     -1.79184      -0.53845       1.11318
                        -----------------------------------------
Total Dipole Moment    :     -0.73216      -0.22002       0.45485
                        -----------------------------------------
Magnitude (a.u.)       :      0.88959
Magnitude (Debye)      :      2.26115

VIBRATIONAL FREQUENCIES
-----------------------

Scaling factor for frequencies =  1.000000000  (already applied!)

   0:         0.00 cm**-1
   1:         0.00 cm**-1
   2:         0.00 cm**-1
   3:         0.00 cm**-1
   4:         0.00 cm**-1
   5:         0.00 cm**-1
   6:       437.12 cm**-1
   7:       466.86 cm**-1
   8:       656.63 cm**-1
   9:       719.73 cm**-1
  10:       775.22 cm**-1
  11:       836.95 cm**-1
  12:       981.78 cm**-1
  13:      1069.74 cm**-1
  14:      1093.89 cm**-1
  15:      1116.79 cm**-1
  16:      1127.36 cm**-1
  17:      1131.26 cm**-1
  18:      1152.36 cm**-1
  19:      1170.56 cm**-1
  20:      1186.39 cm**-1
  21:      1309.09 cm**-1
  22:      1329.34 cm**-1
  23:      1486.38 cm**-1
  24:      1596.48 cm**-1
  25:      1645.27 cm**-1
  26:      1793.59 cm**-1
  27:      1801.06 cm**-1
  28:      3336.98 cm**-1
  29:      3338.31 cm**-1
  30:      3351.15 cm**-1
  31:      3369.87 cm**-1
  32:      3376.77 cm**-1

IR SPECTRUM
-----------

 Mode   freq       eps      Int      T**2         TX        TY        TZ
       cm**-1   L/(mol*cm) km/mol    a.u.
----------------------------------------------------------------------------
  6:    437.12   0.000000    0.00  0.000000  ( 0.000000 -0.000030 -0.000029)
  7:    466.86   0.000850    4.29  0.000568  (-0.002402 -0.019609 -0.013334)
  8:    656.63   0.001167    5.90  0.000555  (-0.019385 -0.005821  0.012037)
  9:    719.73   0.000074    0.37  0.000032  ( 0.003157 -0.002882  0.003689)
 10:    775.22   0.012489   63.11  0.005027  ( 0.007132  0.058328  0.039678)
 11:    836.95   0.002754   13.92  0.001027  (-0.003223 -0.026354 -0.017944)
 12:    981.78   0.000000    0.00  0.000000  (-0.000002  0.000003  0.000010)
 13:   1069.74   0.000028    0.14  0.000008  (-0.000288 -0.002354 -0.001618)
 14:   1093.89   0.001434    7.25  0.000409  ( 0.016648  0.005001 -0.010338)
 15:   1116.79   0.001464    7.40  0.000409  (-0.016653 -0.004998  0.010335)
 16:   1127.36   0.000000    0.00  0.000000  (-0.000008  0.000003  0.000000)
 17:   1131.26   0.000088    0.44  0.000024  (-0.000496 -0.004055 -0.002756)
 18:   1152.36   0.000176    0.89  0.000048  (-0.003875  0.003530 -0.004485)
 19:   1170.56   0.000873    4.41  0.000233  (-0.012570 -0.003764  0.007786)
 20:   1186.39   0.001505    7.60  0.000396  (-0.011110  0.010194 -0.012980)
 21:   1309.09   0.000000    0.00  0.000000  (-0.000005 -0.000006  0.000002)
 22:   1329.34   0.001171    5.92  0.000275  ( 0.013656  0.004094 -0.008467)
 23:   1486.38   0.000069    0.35  0.000014  ( 0.002102 -0.001953  0.002503)
 24:   1596.48   0.008114   41.00  0.001586  (-0.022249  0.020393 -0.025982)
 25:   1645.27   0.001708    8.63  0.000324  (-0.014821 -0.004447  0.009197)
 26:   1793.59   0.004543   22.96  0.000790  (-0.015742  0.014385 -0.018319)
 27:   1801.06   0.008216   41.52  0.001424  (-0.031041 -0.009343  0.019308)
 28:   3336.98   0.004907   24.80  0.000459  (-0.012020  0.010955 -0.013944)
 29:   3338.31   0.000846    4.28  0.000079  ( 0.007295  0.002223 -0.004578)
 30:   3351.15   0.002392   12.09  0.000223  (-0.012271 -0.003705  0.007646)
 31:   3369.87   0.004474   22.61  0.000414  ( 0.011395 -0.010414  0.013266)
 32:   3376.77   0.000523    2.64  0.000048  ( 0.005707  0.001730 -0.003567)

--------------------------
THERMOCHEMISTRY AT 298.15K
--------------------------

Temperature         ... 298.15 K
Pressure            ... 1.00 atm
Total Mass          ... 79.10 AMU

Throughout the following assumptions are being made:
  (1) The electronic state is orbitally nondegenerate
  (2) There are no thermally accessible electronically excited states
  (3) Hindered rotations indicated by low frequency modes are not
      treated as such but are treated as vibrations and this may
      cause some error
  (4) All equations used are the standard statistical mechanics
      equations for an ideal gas
  (5) All vibrations are strictly harmonic

freq.     437.12  E(vib)   ...       0.17
freq.     466.86  E(vib)   ...       0.16
freq.     656.63  E(vib)   ...       0.08
freq.     719.73  E(vib)   ...       0.07
freq.     775.22  E(vib)   ...       0.05
freq.     836.95  E(vib)   ...       0.04
freq.     981.78  E(vib)   ...       0.02
freq.    1069.74  E(vib)   ...       0.02
freq.    1093.89  E(vib)   ...       0.02
freq.    1116.79  E(vib)   ...       0.01
freq.    1127.36  E(vib)   ...       0.01
freq.    1131.26  E(vib)   ...       0.01
freq.    1152.36  E(vib)   ...       0.01
freq.    1170.56  E(vib)   ...       0.01
freq.    1186.39  E(vib)   ...       0.01
freq.    1309.09  E(vib)   ...       0.01
freq.    1329.34  E(vib)   ...       0.01
freq.    1486.38  E(vib)   ...       0.00
freq.    1596.48  E(vib)   ...       0.00
freq.    1645.27  E(vib)   ...       0.00
freq.    1793.59  E(vib)   ...       0.00
freq.    1801.06  E(vib)   ...       0.00
freq.    3336.98  E(vib)   ...       0.00
freq.    3338.31  E(vib)   ...       0.00
freq.    3351.15  E(vib)   ...       0.00
freq.    3369.87  E(vib)   ...       0.00
freq.    3376.77  E(vib)   ...       0.00

------------
INNER ENERGY
------------

The inner energy is: U= E(el) + E(ZPE) + E(vib) + E(rot) + E(trans)
    E(el)   - is the total energy from the electronic structure calculation
              = E(kin-el) + E(nuc-el) + E(el-el) + E(nuc-nuc)
    E(ZPE)  - the the zero temperature vibrational energy from the frequency calculation
    E(vib)  - the the finite temperature correction to E(ZPE) due to population
              of excited vibrational states
    E(rot)  - is the rotational thermal energy
    E(trans)- is the translational thermal energy

Summary of contributions to the inner energy U:
Electronic energy                ...   -246.51180052 Eh
Zero point energy                ...      0.09490148 Eh      59.55 kcal/mol
Thermal vibrational correction   ...      0.00116786 Eh       0.73 kcal/mol
Thermal rotational correction    ...      0.00141627 Eh       0.89 kcal/mol
Thermal translational correction ...      0.00141627 Eh       0.89 kcal/mol
-----------------------------------------------------------------------
Total thermal energy                   -246.41289864 Eh

Summary of corrections to the electronic energy:
(perhaps to be used in another calculation)
Total thermal correction                  0.00400040 Eh       2.51 kcal/mol
Non-thermal (ZPE) correction              0.09490148 Eh      59.55 kcal/mol
-----------------------------------------------------------------------
Total correction                          0.09890188 Eh      62.06 kcal/mol

--------
ENTHALPY
--------

The enthalpy is H = U + kB*T
                kB is Boltzmann's constant
Total free energy                 ...   -246.41289864 Eh
Thermal Enthalpy correction       ...      0.00094421 Eh       0.59 kcal/mol
-----------------------------------------------------------------------
Total Enthalpy                    ...   -246.41195443 Eh

Note: Rotational entropy computed according to Herzberg
Infrared and Raman Spectra, Chapter V,1, Van Nostrand Reinhold, 1945
Point Group:  C2v, Symmetry Number:   2
Rotational constants in cm-1:     0.203847     0.197444     0.100297

Vibrational entropy computed according to the QRRHO of S. Grimme
Chem.Eur.J. 2012 18 9955

-------
ENTROPY
-------

The entropy contributions are T*S = T*(S(el)+S(vib)+S(rot)+S(trans))
     S(el)   - electronic entropy
     S(vib)  - vibrational entropy
     S(rot)  - rotational entropy
     S(trans)- translational entropy
The entropies will be listed as multiplied by the temperature to get
units of energy

Electronic entropy                ...      0.00000000 Eh      0.00 kcal/mol
Vibrational entropy               ...      0.00155253 Eh      0.97 kcal/mol
Rotational entropy                ...      0.01145866 Eh      7.19 kcal/mol
Translational entropy             ...      0.01853922 Eh     11.63 kcal/mol
-----------------------------------------------------------------------
Final entropy term                ...      0.03155041 Eh     19.80 kcal/mol

In case the symmetry of your molecule has not been determined correctly
or in case you have a reason to use a different symmetry number we print
out the resulting rotational entropy values for sn=1,12 :
 --------------------------------------------------------
|  sn= 1 | S(rot)=       0.01211311 Eh      7.60 kcal/mol|
|  sn= 2 | S(rot)=       0.01145866 Eh      7.19 kcal/mol|
|  sn= 3 | S(rot)=       0.01107583 Eh      6.95 kcal/mol|
|  sn= 4 | S(rot)=       0.01080420 Eh      6.78 kcal/mol|
|  sn= 5 | S(rot)=       0.01059351 Eh      6.65 kcal/mol|
|  sn= 6 | S(rot)=       0.01042137 Eh      6.54 kcal/mol|
|  sn= 7 | S(rot)=       0.01027582 Eh      6.45 kcal/mol|
|  sn= 8 | S(rot)=       0.01014975 Eh      6.37 kcal/mol|
|  sn= 9 | S(rot)=       0.01003854 Eh      6.30 kcal/mol|
|  sn=10 | S(rot)=       0.00993906 Eh      6.24 kcal/mol|
|  sn=11 | S(rot)=       0.00984907 Eh      6.18 kcal/mol|
|  sn=12 | S(rot)=       0.00976691 Eh      6.13 kcal/mol|
 --------------------------------------------------------

-------------------
GIBBS FREE ENERGY
-------------------

The Gibbs free energy is G = H - T*S

Total enthalpy                    ...   -246.41195443 Eh
Total entropy correction          ...     -0.03155041 Eh    -19.80 kcal/mol
-----------------------------------------------------------------------
Final Gibbs free energy         ...   -246.44350484 Eh

For completeness - the Gibbs free energy minus the electronic energy
G-E(el)                           ...      0.06829568 Eh     42.86 kcal/mol

                             ****ORCA TERMINATED NORMALLY****
TOTAL RUN TIME: 0 days 0 hours 1 minutes 8 seconds 298 msec
