                         Program Version 5.0.3 -  RELEASE  -
|  1> # avogadro generated ORCA input file
|  2> # Basic Mode
|  3> #
|  4> ! RHF OPT FREQ def2-SVP
|  5>
|  6> * xyz 0 1
|  7>    C        1.13028        0.19443        0.09949
|  8>    C        2.61174        0.26349        0.31996
|  9>    O        3.19210       -0.21987        1.28522
| 10>    O        3.19831        1.00240       -0.70129
| 11>    C        4.59322        1.05993       -0.61539
| 12>    C        5.16150        2.30684       -0.35132
| 13>    C        6.54969        2.42706       -0.26742
| 14>    C        7.36633        1.31008       -0.46118
| 15>    C        6.79829        0.06603       -0.74472
| 16>    C        5.40555       -0.05991       -0.82411
| 17>    C        4.81502       -1.36827       -1.16468
| 18>    O        5.22892       -2.34505       -0.33020
| 19>    O        4.02936       -1.53671       -2.07919
| 20>    H        0.75190       -0.75117        0.49730
| 21>    H        0.90152        0.21902       -0.96983
| 22>    H        0.64585        1.03399        0.60276
| 23>    H        4.52988        3.17919       -0.20747
| 24>    H        6.99747        3.39615       -0.05777
| 25>    H        8.44794        1.41455       -0.40621
| 26>    H        7.44319       -0.79049       -0.92893
| 27>    H        5.64068       -2.00429        0.48906
| 28> *
| 29>
| 30>
| 31>                          ****END OF INPUT****
 Total Charge           Charge          ....    0
 Multiplicity           Mult            ....    1
 Number of Electrons    NEL             ....   94
FINAL SINGLE POINT ENERGY      -644.446653043654
FINAL SINGLE POINT ENERGY      -644.464521831745
FINAL SINGLE POINT ENERGY      -644.465461686047
FINAL SINGLE POINT ENERGY      -644.465634021222
FINAL SINGLE POINT ENERGY      -644.466297570005
FINAL SINGLE POINT ENERGY      -644.466290962627
FINAL SINGLE POINT ENERGY      -644.466485000594
FINAL SINGLE POINT ENERGY      -644.466542337217
FINAL SINGLE POINT ENERGY      -644.466687959524
FINAL SINGLE POINT ENERGY      -644.466891188537
FINAL SINGLE POINT ENERGY      -644.467065831756
FINAL SINGLE POINT ENERGY      -644.467248729735
FINAL SINGLE POINT ENERGY      -644.467353759816
FINAL SINGLE POINT ENERGY      -644.467370685831
FINAL SINGLE POINT ENERGY      -644.467378253149
FINAL SINGLE POINT ENERGY      -644.467379274992
                    ***********************HURRAY********************

CARTESIAN COORDINATES (ANGSTROEM)
---------------------------------
  C      1.096995    0.221696    0.012954
  C      2.553733    0.233236    0.349769
  O      3.076615   -0.365343    1.219472
  O      3.233568    1.030838   -0.491975
  C      4.595675    1.082169   -0.472636
  C      5.177914    2.312940   -0.227813
  C      6.558603    2.446587   -0.247686
  C      7.360983    1.345533   -0.500058
  C      6.770632    0.112051   -0.729733
  C      5.386335   -0.039887   -0.724391
  C      4.772589   -1.374457   -1.047885
  O      5.409542   -2.428765   -0.558451
  O      3.811553   -1.502158   -1.717450
  H      0.545971   -0.292266    0.794596
  H      0.978392   -0.304384   -0.934598
  H      0.729880    1.238462   -0.115291
  H      4.535387    3.158711   -0.029444
  H      7.004476    3.414860   -0.063475
  H      8.437491    1.443356   -0.523514
  H      7.398305   -0.742698   -0.946048
  H      6.004101   -2.193080    0.137736

 Multiplicity           Mult            ....    1
 Number of Electrons    NEL             ....   94
 Basis Dimension        Dim             ....  222

ORBITAL ENERGIES
----------------

  NO   OCC          E(Eh)            E(eV)
   0   2.0000     -20.614599      -560.9518
   1   2.0000     -20.605042      -560.6917
   2   2.0000     -20.549213      -559.1725
   3   2.0000     -20.539407      -558.9057
   4   2.0000     -11.392897      -310.0165
   5   2.0000     -11.392534      -310.0066
   6   2.0000     -11.332040      -308.3605
   7   2.0000     -11.273554      -306.7690
   8   2.0000     -11.269950      -306.6709
   9   2.0000     -11.267657      -306.6085
  10   2.0000     -11.259386      -306.3835
  11   2.0000     -11.258551      -306.3607
  12   2.0000     -11.244517      -305.9789
  13   2.0000      -1.484535       -40.3963
  14   2.0000      -1.462913       -39.8079
  15   2.0000      -1.377894       -37.4944
  16   2.0000      -1.363920       -37.1141
  17   2.0000      -1.177871       -32.0515
  18   2.0000      -1.057407       -28.7735
  19   2.0000      -1.052767       -28.6473
  20   2.0000      -1.002925       -27.2910
  21   2.0000      -0.903578       -24.5876
  22   2.0000      -0.870101       -23.6767
  23   2.0000      -0.848567       -23.0907
  24   2.0000      -0.811391       -22.0791
  25   2.0000      -0.754758       -20.5380
  26   2.0000      -0.716240       -19.4899
  27   2.0000      -0.705913       -19.2089
  28   2.0000      -0.697897       -18.9908
  29   2.0000      -0.674896       -18.3648
  30   2.0000      -0.668730       -18.1971
  31   2.0000      -0.644716       -17.5436
  32   2.0000      -0.637152       -17.3378
  33   2.0000      -0.632329       -17.2065
  34   2.0000      -0.596696       -16.2369
  35   2.0000      -0.582879       -15.8609
  36   2.0000      -0.576883       -15.6978
  37   2.0000      -0.565624       -15.3914
  38   2.0000      -0.554186       -15.0802
  39   2.0000      -0.533752       -14.5241
  40   2.0000      -0.528825       -14.3901
  41   2.0000      -0.493243       -13.4218
  42   2.0000      -0.486049       -13.2261
  43   2.0000      -0.464474       -12.6390
  44   2.0000      -0.451743       -12.2925
  45   2.0000      -0.370865       -10.0917
  46   2.0000      -0.356142        -9.6911
  47   0.0000       0.085383         2.3234
  48   0.0000       0.108655         2.9567
  49   0.0000       0.170333         4.6350
  50   0.0000       0.181516         4.9393
  51   0.0000       0.189856         5.1662

MULLIKEN ATOMIC CHARGES
-----------------------
   0 C :   -0.014117
   1 C :    0.411343
   2 O :   -0.379341
   3 O :   -0.507474
   4 C :    0.332776
   5 C :   -0.059303
   6 C :    0.010164
   7 C :   -0.039312
   8 C :   -0.013398
   9 C :   -0.294723
  10 C :    0.593942
  11 O :   -0.304924
  12 O :   -0.353315
  13 H :    0.065385
  14 H :    0.088928
  15 H :    0.061405
  16 H :    0.046493
  17 H :    0.053306
  18 H :    0.048732
  19 H :    0.046620
  20 H :    0.206813
Sum of atomic charges:   -0.0000000

LOEWDIN ATOMIC CHARGES
----------------------
   0 C :   -0.041825
   1 C :    0.193245
   2 O :   -0.230461
   3 O :   -0.130220
   4 C :    0.114504
   5 C :   -0.030608
   6 C :    0.009878
   7 C :   -0.032849
   8 C :   -0.002459
   9 C :   -0.106772
  10 C :    0.183626
  11 O :   -0.058854
  12 O :   -0.219454
  13 H :    0.037634
  14 H :    0.054465
  15 H :    0.039004
  16 H :    0.036907
  17 H :    0.033603
  18 H :    0.031388
  19 H :    0.030079
  20 H :    0.089167

  Mayer bond orders larger than 0.100000
B(  0-C ,  1-C ) :   1.0039 B(  0-C , 13-H ) :   0.9810 B(  0-C , 14-H ) :   0.9626
B(  0-C , 15-H ) :   0.9691 B(  1-C ,  2-O ) :   2.0068 B(  1-C ,  3-O ) :   0.9880
B(  3-O ,  4-C ) :   0.8887 B(  4-C ,  5-C ) :   1.4687 B(  4-C ,  9-C ) :   1.4193
B(  5-C ,  6-C ) :   1.3853 B(  5-C , 16-H ) :   1.0060 B(  6-C ,  7-C ) :   1.4172
B(  6-C , 17-H ) :   0.9986 B(  7-C ,  8-C ) :   1.4271 B(  7-C , 18-H ) :   1.0042
B(  8-C ,  9-C ) :   1.4096 B(  8-C , 19-H ) :   0.9987 B(  9-C , 10-C ) :   0.8998
B( 10-C , 11-O ) :   1.1417 B( 10-C , 12-O ) :   2.0538 B( 11-O , 20-H ) :   0.9573

FINAL SINGLE POINT ENERGY      -644.467379377546

DIPOLE MOMENT
-------------
                                X             Y             Z
Electronic contribution:      1.53854      -2.75952      -0.88802
Nuclear contribution   :     -0.60901       4.07492       1.32145
                        -----------------------------------------
Total Dipole Moment    :      0.92953       1.31540       0.43343
                        -----------------------------------------
Magnitude (a.u.)       :      1.66798
Magnitude (Debye)      :      4.23966

VIBRATIONAL FREQUENCIES
-----------------------

Scaling factor for frequencies =  1.000000000  (already applied!)

   0:         0.00 cm**-1
   1:         0.00 cm**-1
   2:         0.00 cm**-1
   3:         0.00 cm**-1
   4:         0.00 cm**-1
   5:         0.00 cm**-1
   6:        52.93 cm**-1
   7:        77.57 cm**-1
   8:        88.35 cm**-1
   9:       122.87 cm**-1
  10:       130.08 cm**-1
  11:       149.95 cm**-1
  12:       225.08 cm**-1
  13:       293.07 cm**-1
  14:       327.64 cm**-1
  15:       383.28 cm**-1
  16:       439.76 cm**-1
  17:       492.26 cm**-1
  18:       501.42 cm**-1
  19:       555.43 cm**-1
  20:       596.13 cm**-1
  21:       624.28 cm**-1
  22:       654.92 cm**-1
  23:       703.51 cm**-1
  24:       739.80 cm**-1
  25:       795.46 cm**-1
  26:       830.33 cm**-1
  27:       859.54 cm**-1
  28:       899.01 cm**-1
  29:       925.22 cm**-1
  30:       990.65 cm**-1
  31:      1040.55 cm**-1
  32:      1092.49 cm**-1
  33:      1114.01 cm**-1
  34:      1125.57 cm**-1
  35:      1135.99 cm**-1
  36:      1162.77 cm**-1
  37:      1188.17 cm**-1
  38:      1211.55 cm**-1
  39:      1238.19 cm**-1
  40:      1306.87 cm**-1
  41:      1329.38 cm**-1
  42:      1358.98 cm**-1
  43:      1387.59 cm**-1
  44:      1408.24 cm**-1
  45:      1484.91 cm**-1
  46:      1528.99 cm**-1
  47:      1566.26 cm**-1
  48:      1575.90 cm**-1
  49:      1605.16 cm**-1
  50:      1659.95 cm**-1
  51:      1783.13 cm**-1
  52:      1817.73 cm**-1
  53:      2050.74 cm**-1
  54:      2062.88 cm**-1
  55:      3208.66 cm**-1
  56:      3300.21 cm**-1
  57:      3338.21 cm**-1
  58:      3348.05 cm**-1
  59:      3358.24 cm**-1
  60:      3373.20 cm**-1
  61:      3382.16 cm**-1
  62:      4180.16 cm**-1

IR SPECTRUM
-----------

 Mode   freq       eps      Int      T**2         TX        TY        TZ
       cm**-1   L/(mol*cm) km/mol    a.u.
----------------------------------------------------------------------------
  6:     52.93   0.002489   12.58  0.014676  (-0.070985  0.039242  0.089983)
  7:     77.57   0.000725    3.66  0.002917  (-0.010987  0.046458  0.025257)
  8:     88.35   0.000787    3.98  0.002780  ( 0.027351  0.031009 -0.032717)
  9:    122.87   0.000222    1.12  0.000563  ( 0.002277  0.020233 -0.012193)
 10:    130.08   0.000018    0.09  0.000044  ( 0.000400 -0.000194 -0.006643)
 11:    149.95   0.000236    1.19  0.000492  ( 0.002743  0.021772  0.003188)
 12:    225.08   0.001538    7.77  0.002132  (-0.037050  0.015924  0.022489)
 13:    293.07   0.001765    8.92  0.001880  ( 0.027479  0.027083 -0.019774)
 14:    327.64   0.000191    0.97  0.000182  ( 0.001790 -0.011069  0.007500)
 15:    383.28   0.001440    7.28  0.001173  ( 0.026544 -0.020483 -0.006968)
 16:    439.76   0.001653    8.36  0.001173  (-0.016796 -0.029246  0.005991)
 17:    492.26   0.001749    8.84  0.001109  (-0.021339  0.005358  0.024998)
 18:    501.42   0.018834   95.18  0.011721  ( 0.080793  0.024197 -0.067884)
 19:    555.43   0.001811    9.15  0.001017  ( 0.023582 -0.009978  0.019019)
 20:    596.13   0.003024   15.28  0.001583  ( 0.037145  0.013592 -0.004277)
 21:    624.28   0.001232    6.22  0.000616  ( 0.018958 -0.013528 -0.008561)
 22:    654.92   0.002462   12.44  0.001173  (-0.007685 -0.028274 -0.017739)
 23:    703.51   0.001551    7.84  0.000688  (-0.001345 -0.024498 -0.009276)
 24:    739.80   0.003884   19.63  0.001638  ( 0.037816  0.012923 -0.006419)
 25:    795.46   0.008328   42.09  0.003267  (-0.017761 -0.011820  0.053029)
 26:    830.33   0.003291   16.63  0.001237  ( 0.002089  0.001861  0.035055)
 27:    859.54   0.003445   17.41  0.001251  ( 0.001589 -0.007505  0.034522)
 28:    899.01   0.001502    7.59  0.000521  ( 0.021565  0.003331  0.006730)
 29:    925.22   0.004563   23.06  0.001539  (-0.022849  0.014020 -0.028642)
 30:    990.65   0.000713    3.60  0.000225  (-0.013628 -0.006201 -0.000604)
 31:   1040.55   0.005215   26.35  0.001564  ( 0.017907  0.017132 -0.030819)
 32:   1092.49   0.000829    4.19  0.000237  ( 0.000437 -0.007291  0.013544)
 33:   1114.01   0.005875   29.69  0.001646  ( 0.034891  0.016476 -0.012525)
 34:   1125.57   0.000060    0.31  0.000017  (-0.000926 -0.001693  0.003608)
 35:   1135.99   0.001106    5.59  0.000304  ( 0.007773  0.015533 -0.001497)
 36:   1162.77   0.002521   12.74  0.000677  (-0.000698 -0.020870 -0.015508)
 37:   1188.17   0.007265   36.71  0.001908  (-0.035936  0.024587 -0.003496)
 38:   1211.55   0.001957    9.89  0.000504  (-0.018602  0.007900  0.009781)
 39:   1238.19   0.000458    2.31  0.000115  ( 0.000436 -0.010411  0.002608)
 40:   1306.87   0.006510   32.90  0.001555  (-0.020492  0.027915 -0.018851)
 41:   1329.38   0.012419   62.76  0.002915  ( 0.051270 -0.016749 -0.002465)
 42:   1358.98   0.011499   58.11  0.002641  ( 0.046937  0.011459 -0.017497)
 43:   1387.59   0.065777  332.41  0.014793  (-0.104521 -0.034328  0.051864)
 44:   1408.24   0.044992  227.37  0.009970  (-0.093502 -0.018065  0.030021)
 45:   1484.91   0.111178  561.85  0.023365  ( 0.008897 -0.147198  0.040230)
 46:   1528.99   0.041460  209.52  0.008462  (-0.078147 -0.043604  0.021298)
 47:   1566.26   0.002767   13.98  0.000551  (-0.015250  0.008039 -0.015938)
 48:   1575.90   0.002874   14.53  0.000569  (-0.014814  0.011651  0.014627)
 49:   1605.16   0.006394   32.31  0.001243  (-0.033195 -0.001984  0.011714)
 50:   1659.95   0.014865   75.12  0.002794  ( 0.050436 -0.014801 -0.005625)
 51:   1783.13   0.003613   18.26  0.000632  (-0.014095  0.016883  0.012189)
 52:   1817.73   0.008872   44.84  0.001523  ( 0.018551  0.034100 -0.004029)
 53:   2050.74   0.038118  192.63  0.005800  (-0.006153 -0.059732  0.046848)
 54:   2062.88   0.120101  606.94  0.018168  (-0.104475 -0.012890 -0.084186)
 55:   3208.66   0.000324    1.64  0.000032  (-0.004924  0.002417  0.001195)
 56:   3300.21   0.000609    3.08  0.000058  (-0.005243  0.005476  0.000345)
 57:   3338.21   0.001167    5.90  0.000109  ( 0.006212  0.006480 -0.005341)
 58:   3348.05   0.000108    0.54  0.000010  ( 0.000765 -0.003006 -0.000638)
 59:   3358.24   0.000986    4.98  0.000092  ( 0.000665  0.009433  0.001483)
 60:   3373.20   0.001803    9.11  0.000167  ( 0.012901  0.000196 -0.000569)
 61:   3382.16   0.000623    3.15  0.000057  (-0.002572 -0.006975 -0.001494)
 62:   4180.16   0.022220  112.29  0.001659  (-0.025634  0.002116 -0.031579)

--------------------------
THERMOCHEMISTRY AT 298.15K
--------------------------

Temperature         ... 298.15 K
Pressure            ... 1.00 atm
Total Mass          ... 180.16 AMU

Throughout the following assumptions are being made:
  (1) The electronic state is orbitally nondegenerate
  (2) There are no thermally accessible electronically excited states
  (3) Hindered rotations indicated by low frequency modes are not
      treated as such but are treated as vibrations and this may
      cause some error
  (4) All equations used are the standard statistical mechanics
      equations for an ideal gas
  (5) All vibrations are strictly harmonic

freq.      52.93  E(vib)   ...       0.52
freq.      77.57  E(vib)   ...       0.49
freq.      88.35  E(vib)   ...       0.48
freq.     122.87  E(vib)   ...       0.43
freq.     130.08  E(vib)   ...       0.43
freq.     149.95  E(vib)   ...       0.40
freq.     225.08  E(vib)   ...       0.33
freq.     293.07  E(vib)   ...       0.27
freq.     327.64  E(vib)   ...       0.24
freq.     383.28  E(vib)   ...       0.20
freq.     439.76  E(vib)   ...       0.17
freq.     492.26  E(vib)   ...       0.14
freq.     501.42  E(vib)   ...       0.14
freq.     555.43  E(vib)   ...       0.12
freq.     596.13  E(vib)   ...       0.10
freq.     624.28  E(vib)   ...       0.09
freq.     654.92  E(vib)   ...       0.08
freq.     703.51  E(vib)   ...       0.07
freq.     739.80  E(vib)   ...       0.06
freq.     795.46  E(vib)   ...       0.05
freq.     830.33  E(vib)   ...       0.04
freq.     859.54  E(vib)   ...       0.04
freq.     899.01  E(vib)   ...       0.03
freq.     925.22  E(vib)   ...       0.03
freq.     990.65  E(vib)   ...       0.02
freq.    1040.55  E(vib)   ...       0.02
freq.    1092.49  E(vib)   ...       0.02
freq.    1114.01  E(vib)   ...       0.01
freq.    1125.57  E(vib)   ...       0.01
freq.    1135.99  E(vib)   ...       0.01
freq.    1162.77  E(vib)   ...       0.01
freq.    1188.17  E(vib)   ...       0.01
freq.    1211.55  E(vib)   ...       0.01
freq.    1238.19  E(vib)   ...       0.01
freq.    1306.87  E(vib)   ...       0.01
freq.    1329.38  E(vib)   ...       0.01
freq.    1358.98  E(vib)   ...       0.01
freq.    1387.59  E(vib)   ...       0.00
freq.    1408.24  E(vib)   ...       0.00
freq.    1484.91  E(vib)   ...       0.00
freq.    1528.99  E(vib)   ...       0.00
freq.    1566.26  E(vib)   ...       0.00
freq.    1575.90  E(vib)   ...       0.00
freq.    1605.16  E(vib)   ...       0.00
freq.    1659.95  E(vib)   ...       0.00
freq.    1783.13  E(vib)   ...       0.00
freq.    1817.73  E(vib)   ...       0.00
freq.    2050.74  E(vib)   ...       0.00
freq.    2062.88  E(vib)   ...       0.00
freq.    3208.66  E(vib)   ...       0.00
freq.    3300.21  E(vib)   ...       0.00
freq.    3338.21  E(vib)   ...       0.00
freq.    3348.05  E(vib)   ...       0.00
freq.    3358.24  E(vib)   ...       0.00
freq.    3373.20  E(vib)   ...       0.00
freq.    3382.16  E(vib)   ...       0.00
freq.    4180.16  E(vib)   ...       0.00

------------
INNER ENERGY
------------

The inner energy is: U= E(el) + E(ZPE) + E(vib) + E(rot) + E(trans)
    E(el)   - is the total energy from the electronic structure calculation
              = E(kin-el) + E(nuc-el) + E(el-el) + E(nuc-nuc)
    E(ZPE)  - the the zero temperature vibrational energy from the frequency calculation
    E(vib)  - the the finite temperature correction to E(ZPE) due to population
              of excited vibrational states
    E(rot)  - is the rotational thermal energy
    E(trans)- is the translational thermal energy

Summary of contributions to the inner energy U:
Electronic energy                ...   -644.46737938 Eh
Zero point energy                ...      0.16900228 Eh     106.05 kcal/mol
Thermal vibrational correction   ...      0.00822205 Eh       5.16 kcal/mol
Thermal rotational correction    ...      0.00141627 Eh       0.89 kcal/mol
Thermal translational correction ...      0.00141627 Eh       0.89 kcal/mol
-----------------------------------------------------------------------
Total thermal energy                   -644.28732251 Eh

Summary of corrections to the electronic energy:
(perhaps to be used in another calculation)
Total thermal correction                  0.01105459 Eh       6.94 kcal/mol
Non-thermal (ZPE) correction              0.16900228 Eh     106.05 kcal/mol
-----------------------------------------------------------------------
Total correction                          0.18005687 Eh     112.99 kcal/mol

--------
ENTHALPY
--------

The enthalpy is H = U + kB*T
                kB is Boltzmann's constant
Total free energy                 ...   -644.28732251 Eh
Thermal Enthalpy correction       ...      0.00094421 Eh       0.59 kcal/mol
-----------------------------------------------------------------------
Total Enthalpy                    ...   -644.28637830 Eh

Note: Only C1 symmetry has been detected, increase convergence thresholds
      if your molecule has a higher symmetry. Symmetry factor of 1.0 is
      used for the rotational entropy correction.

Note: Rotational entropy computed according to Herzberg
Infrared and Raman Spectra, Chapter V,1, Van Nostrand Reinhold, 1945
Point Group:  C1, Symmetry Number:   1
Rotational constants in cm-1:     0.039709     0.025184     0.017534

Vibrational entropy computed according to the QRRHO of S. Grimme
Chem.Eur.J. 2012 18 9955

-------
ENTROPY
-------

The entropy contributions are T*S = T*(S(el)+S(vib)+S(rot)+S(trans))
     S(el)   - electronic entropy
     S(vib)  - vibrational entropy
     S(rot)  - rotational entropy
     S(trans)- translational entropy
The entropies will be listed as multiplied by the temperature to get
units of energy

Electronic entropy                ...      0.00000000 Eh      0.00 kcal/mol
Vibrational entropy               ...      0.01441246 Eh      9.04 kcal/mol
Rotational entropy                ...      0.01468084 Eh      9.21 kcal/mol
Translational entropy             ...      0.01970496 Eh     12.37 kcal/mol
-----------------------------------------------------------------------
Final entropy term                ...      0.04879825 Eh     30.62 kcal/mol

In case the symmetry of your molecule has not been determined correctly
or in case you have a reason to use a different symmetry number we print
out the resulting rotational entropy values for sn=1,12 :
 --------------------------------------------------------
|  sn= 1 | S(rot)=       0.01468084 Eh      9.21 kcal/mol|
|  sn= 2 | S(rot)=       0.01402638 Eh      8.80 kcal/mol|
|  sn= 3 | S(rot)=       0.01364355 Eh      8.56 kcal/mol|
|  sn= 4 | S(rot)=       0.01337192 Eh      8.39 kcal/mol|
|  sn= 5 | S(rot)=       0.01316124 Eh      8.26 kcal/mol|
|  sn= 6 | S(rot)=       0.01298909 Eh      8.15 kcal/mol|

                             ****ORCA TERMINATED NORMALLY****
TOTAL RUN TIME: 0 days 0 hours 20 minutes 39 seconds 250 msec
