                         Program Version 5.0.3 -  RELEASE  -
|  1> ! B3LYP def2-SVP Freq CPCM(acetone) TightSCF
|  2>
|  3> * xyz 0 1
|  4>    C        1.13028        0.19443        0.09949
|  5>    C        2.61174        0.26349        0.31996
|  6>    O        3.19210       -0.21987        1.28522
|  7>    O        3.19831        1.00240       -0.70129
|  8>    C        4.59322        1.05993       -0.61539
|  9>    C        5.16150        2.30684       -0.35132
| 10>    C        6.54969        2.42706       -0.26742
| 11>    C        7.36633        1.31008       -0.46118
| 12>    C        6.79829        0.06603       -0.74472
| 13>    C        5.40555       -0.05991       -0.82411
| 14>    C        4.81502       -1.36827       -1.16468
| 15>    O        5.22892       -2.34505       -0.33020
| 16>    O        4.02936       -1.53671       -2.07919
| 17>    H        0.75190       -0.75117        0.49730
| 18>    H        0.90152        0.21902       -0.96983
| 19>    H        0.64585        1.03399        0.60276
| 20>    H        4.52988        3.17919       -0.20747
| 21>    H        6.99747        3.39615       -0.05777
| 22>    H        8.44794        1.41455       -0.40621
| 23>    H        7.44319       -0.79049       -0.92893
| 24>    H        5.64068       -2.00429        0.48906
| 25> **                         ****END OF INPUT****

CARTESIAN COORDINATES (ANGSTROEM)
---------------------------------
  C      1.130280    0.194430    0.099490
  C      2.611740    0.263490    0.319960
  O      3.192100   -0.219870    1.285220
  O      3.198310    1.002400   -0.701290
  C      4.593220    1.059930   -0.615390
  C      5.161500    2.306840   -0.351320
  C      6.549690    2.427060   -0.267420
  C      7.366330    1.310080   -0.461180
  C      6.798290    0.066030   -0.744720
  C      5.405550   -0.059910   -0.824110
  C      4.815020   -1.368270   -1.164680
  O      5.228920   -2.345050   -0.330200
  O      4.029360   -1.536710   -2.079190
  H      0.751900   -0.751170    0.497300
  H      0.901520    0.219020   -0.969830
  H      0.645850    1.033990    0.602760
  H      4.529880    3.179190   -0.207470
  H      6.997470    3.396150   -0.057770
  H      8.447940    1.414550   -0.406210
  H      7.443190   -0.790490   -0.928930
  H      5.640680   -2.004290    0.489060

 Total Charge           Charge          ....    0
 Multiplicity           Mult            ....    1
 Number of Electrons    NEL             ....   94
 Basis Dimension        Dim             ....  222

ORBITAL ENERGIES
----------------

  NO   OCC          E(Eh)            E(eV)
   0   2.0000     -19.200000      -522.4586
   1   2.0000     -19.183564      -522.0113
   2   2.0000     -19.142043      -520.8815
   3   2.0000     -19.133681      -520.6539
   4   2.0000     -10.333635      -281.1925
   5   2.0000     -10.330386      -281.1041
   6   2.0000     -10.265440      -279.3368
   7   2.0000     -10.213266      -277.9171
   8   2.0000     -10.208716      -277.7933
   9   2.0000     -10.203011      -277.6380
  10   2.0000     -10.202218      -277.6165
  11   2.0000     -10.199541      -277.5436
  12   2.0000     -10.192583      -277.3543
  13   2.0000      -1.106785       -30.1172
  14   2.0000      -1.091428       -29.6993
  15   2.0000      -1.022397       -27.8208
  16   2.0000      -1.014514       -27.6063
  17   2.0000      -0.866960       -23.5912
  18   2.0000      -0.774717       -21.0811
  19   2.0000      -0.770425       -20.9643
  20   2.0000      -0.732095       -19.9213
  21   2.0000      -0.659001       -17.9323
  22   2.0000      -0.631241       -17.1769
  23   2.0000      -0.622187       -16.9306
  24   2.0000      -0.590192       -16.0599
  25   2.0000      -0.540580       -14.7099
  26   2.0000      -0.508105       -13.8262
  27   2.0000      -0.499551       -13.5935
  28   2.0000      -0.493231       -13.4215
  29   2.0000      -0.474807       -12.9202
  30   2.0000      -0.466424       -12.6920
  31   2.0000      -0.456595       -12.4246
  32   2.0000      -0.446741       -12.1564
  33   2.0000      -0.444818       -12.1041
  34   2.0000      -0.416140       -11.3238
  35   2.0000      -0.400978       -10.9112
  36   2.0000      -0.398781       -10.8514
  37   2.0000      -0.390242       -10.6190
  38   2.0000      -0.381395       -10.3783
  39   2.0000      -0.369799       -10.0627
  40   2.0000      -0.367272        -9.9940
  41   2.0000      -0.336311        -9.1515
  42   2.0000      -0.327422        -8.9096
  43   2.0000      -0.296790        -8.0761
  44   2.0000      -0.289394        -7.8748
  45   2.0000      -0.270183        -7.3521
  46   2.0000      -0.262405        -7.1404
  47   0.0000      -0.045216        -1.2304
  48   0.0000      -0.027130        -0.7383
  49   0.0000      -0.010393        -0.2828
  50   0.0000       0.016854         0.4586
  51   0.0000       0.067292         1.8311

MULLIKEN ATOMIC CHARGES
-----------------------
   0 C :    0.060537
   1 C :    0.168664
   2 O :   -0.275931
   3 O :   -0.289700
   4 C :    0.185150
   5 C :   -0.005525
   6 C :    0.021759
   7 C :    0.021742
   8 C :   -0.007105
   9 C :   -0.082750
  10 C :    0.204282
  11 O :   -0.198995
  12 O :   -0.251144
  13 H :    0.049887
  14 H :    0.045113
  15 H :    0.074205
  16 H :    0.002488
  17 H :    0.016883
  18 H :    0.013441
  19 H :    0.013533
  20 H :    0.233464
Sum of atomic charges:   -0.0000000

LOEWDIN ATOMIC CHARGES
----------------------
   0 C :   -0.065031
   1 C :    0.133205
   2 O :   -0.209912
   3 O :   -0.080811
   4 C :    0.060197
   5 C :   -0.024038
   6 C :   -0.004173
   7 C :   -0.019532
   8 C :   -0.003909
   9 C :   -0.093531
  10 C :    0.092647
  11 O :   -0.038320
  12 O :   -0.204998
  13 H :    0.050409
  14 H :    0.046114
  15 H :    0.063150
  16 H :    0.044627
  17 H :    0.041767
  18 H :    0.040368
  19 H :    0.043370
  20 H :    0.128401

  Mayer bond orders larger than 0.100000
B(  0-C ,  1-C ) :   1.0605 B(  0-C , 13-H ) :   0.9523 B(  0-C , 14-H ) :   0.9494
B(  0-C , 15-H ) :   0.9365 B(  1-C ,  2-O ) :   2.0281 B(  1-C ,  3-O ) :   1.0694
B(  3-O ,  4-C ) :   0.9880 B(  4-C ,  5-C ) :   1.4083 B(  4-C ,  9-C ) :   1.3930
B(  5-C ,  6-C ) :   1.3437 B(  5-C , 16-H ) :   0.9990 B(  6-C ,  7-C ) :   1.3725
B(  6-C , 17-H ) :   0.9887 B(  7-C ,  8-C ) :   1.3730 B(  7-C , 18-H ) :   0.9918
B(  8-C ,  9-C ) :   1.3606 B(  8-C , 19-H ) :   0.9934 B(  9-C , 10-C ) :   0.9051
B( 10-C , 11-O ) :   1.2373 B( 10-C , 12-O ) :   2.1128 B( 11-O , 20-H ) :   0.9247

FINAL SINGLE POINT ENERGY      -647.877001588307

DIPOLE MOMENT
-------------
                                X             Y             Z
Electronic contribution:      1.91882      -2.62731      -1.45346
Nuclear contribution   :     -1.01279       4.01313       2.34239
                        -----------------------------------------
Total Dipole Moment    :      0.90603       1.38583       0.88894
                        -----------------------------------------
Magnitude (a.u.)       :      1.87926
Magnitude (Debye)      :      4.77670

VIBRATIONAL FREQUENCIES
-----------------------

Scaling factor for frequencies =  1.000000000  (already applied!)

   0:         0.00 cm**-1
   1:         0.00 cm**-1
   2:         0.00 cm**-1
   3:         0.00 cm**-1
   4:         0.00 cm**-1
   5:         0.00 cm**-1
   6:      -256.21 cm**-1 ***imaginary mode***
   7:        49.41 cm**-1
   8:       101.92 cm**-1
   9:       111.29 cm**-1
  10:       115.11 cm**-1
  11:       133.24 cm**-1
  12:       203.92 cm**-1
  13:       266.68 cm**-1
  14:       311.94 cm**-1
  15:       365.29 cm**-1
  16:       396.16 cm**-1
  17:       462.16 cm**-1
  18:       505.65 cm**-1
  19:       549.87 cm**-1
  20:       573.10 cm**-1
  21:       588.33 cm**-1
  22:       612.01 cm**-1
  23:       645.92 cm**-1
  24:       673.36 cm**-1
  25:       735.40 cm**-1
  26:       752.63 cm**-1
  27:       784.24 cm**-1
  28:       807.49 cm**-1
  29:       834.20 cm**-1
  30:       886.21 cm**-1
  31:       907.74 cm**-1
  32:       976.66 cm**-1
  33:      1001.22 cm**-1
  34:      1019.70 cm**-1
  35:      1041.52 cm**-1
  36:      1054.95 cm**-1
  37:      1090.79 cm**-1
  38:      1134.15 cm**-1
  39:      1156.40 cm**-1
  40:      1174.75 cm**-1
  41:      1198.60 cm**-1
  42:      1232.29 cm**-1
  43:      1276.91 cm**-1
  44:      1337.50 cm**-1
  45:      1355.68 cm**-1
  46:      1367.58 cm**-1
  47:      1400.22 cm**-1
  48:      1439.96 cm**-1
  49:      1475.96 cm**-1
  50:      1521.47 cm**-1
  51:      1638.70 cm**-1
  52:      1662.51 cm**-1
  53:      1710.61 cm**-1
  54:      1786.92 cm**-1
  55:      3109.51 cm**-1
  56:      3203.44 cm**-1
  57:      3222.58 cm**-1
  58:      3229.81 cm**-1
  59:      3239.84 cm**-1
  60:      3247.35 cm**-1
  61:      3257.61 cm**-1
  62:      3673.67 cm**-1

IR SPECTRUM
-----------

 Mode   freq       eps      Int      T**2         TX        TY        TZ
       cm**-1   L/(mol*cm) km/mol    a.u.
----------------------------------------------------------------------------
  7:     49.41   0.001204    6.08  0.007601  ( 0.029481 -0.066031 -0.048696)
  8:    101.92   0.001082    5.47  0.003312  (-0.019993 -0.046930  0.026648)
  9:    111.29   0.000830    4.19  0.002327  ( 0.029154 -0.015830 -0.035023)
 10:    115.11   0.000315    1.59  0.000854  ( 0.001486 -0.023510 -0.017281)
 11:    133.24   0.000509    2.57  0.001192  ( 0.028388  0.019535 -0.002234)
 12:    203.92   0.002764   13.97  0.004229  (-0.053205  0.027489  0.025359)
 13:    266.68   0.002150   10.87  0.002516  (-0.032354 -0.030623  0.023053)
 14:    311.94   0.000336    1.70  0.000336  (-0.006779  0.013148 -0.010813)
 15:    365.29   0.002063   10.42  0.001762  ( 0.033970 -0.024538  0.002433)
 16:    396.16   0.001763    8.91  0.001389  ( 0.024765  0.027386 -0.005063)
 17:    462.16   0.000743    3.75  0.000501  (-0.000915  0.020732  0.008414)
 18:    505.65   0.004159   21.02  0.002567  ( 0.006358 -0.012151  0.048774)
 19:    549.87   0.002240   11.32  0.001272  (-0.031657  0.016385 -0.000910)
 20:    573.10   0.034141  172.54  0.018590  ( 0.127922 -0.008417 -0.046427)
 21:    588.33   0.003384   17.10  0.001795  ( 0.026888  0.024887 -0.021280)
 22:    612.01   0.002000   10.11  0.001020  ( 0.015923  0.021267  0.017722)
 23:    645.92   0.001639    8.28  0.000792  ( 0.003454  0.021133  0.018262)
 24:    673.36   0.001485    7.51  0.000688  ( 0.017777  0.019221 -0.001686)
 25:    735.40   0.010362   52.36  0.004397  ( 0.000829  0.013583 -0.064898)
 26:    752.63   0.000718    3.63  0.000298  ( 0.013632  0.004719  0.009470)
 27:    784.24   0.000612    3.09  0.000243  ( 0.008692  0.006671  0.011107)
 28:    807.49   0.000568    2.87  0.000219  (-0.004653  0.001119 -0.014018)
 29:    834.20   0.013845   69.97  0.005179  (-0.012323 -0.039508  0.058876)
 30:    886.21   0.007479   37.80  0.002634  ( 0.048187  0.016391 -0.006550)
 31:    907.74   0.015158   76.60  0.005211  (-0.056358 -0.023141  0.038723)
 32:    976.66   0.001549    7.83  0.000495  ( 0.008147  0.012359 -0.016605)
 33:   1001.22   0.004148   20.96  0.001293  ( 0.033693  0.007386 -0.010157)
 34:   1019.70   0.000029    0.14  0.000009  (-0.001814 -0.001433 -0.001853)
 35:   1041.52   0.004112   20.78  0.001232  (-0.014316  0.029067  0.013504)
 36:   1054.95   0.001780    9.00  0.000527  (-0.015944 -0.016260 -0.002823)
 37:   1090.79   0.018766   94.84  0.005369  ( 0.061600 -0.039572  0.002898)
 38:   1134.15   0.000347    1.75  0.000095  ( 0.005875  0.006428 -0.004434)
 39:   1156.40   0.000779    3.93  0.000210  (-0.012577  0.001092  0.007123)
 40:   1174.75   0.126031  636.91  0.033479  ( 0.167685  0.038964 -0.061988)
 41:   1198.60   0.068324  345.28  0.017789  ( 0.036189  0.097077 -0.083994)
 42:   1232.29   0.006427   32.48  0.001627  ( 0.000140 -0.034147  0.021481)
 43:   1276.91   0.005662   28.61  0.001384  ( 0.017192 -0.025028  0.021488)
 44:   1337.50   0.100811  509.46  0.023521  ( 0.002202  0.139801 -0.063024)
 45:   1355.68   0.019086   96.45  0.004393  (-0.055069 -0.023684  0.028282)
 46:   1367.58   0.007289   36.84  0.001663  (-0.004584  0.039075 -0.010747)
 47:   1400.22   0.007720   39.02  0.001721  ( 0.038766 -0.005763  0.013585)
 48:   1439.96   0.003690   18.65  0.000800  (-0.010625 -0.026112 -0.002203)
 49:   1475.96   0.006304   31.86  0.001333  ( 0.035082  0.001397 -0.010014)
 50:   1521.47   0.010061   50.84  0.002064  (-0.040878  0.018940 -0.005820)
 51:   1638.70   0.002682   13.55  0.000511  ( 0.010372 -0.001250 -0.020041)
 52:   1662.51   0.008054   40.70  0.001512  ( 0.009021  0.037698 -0.003058)
 53:   1710.61   0.067106  339.12  0.012242  (-0.047094  0.052747 -0.085099)
 54:   1786.92   0.120807  610.51  0.021097  (-0.091880 -0.054468 -0.098431)
 55:   3109.51   0.000089    0.45  0.000009  (-0.000694  0.002150  0.001947)
 56:   3203.44   0.000505    2.55  0.000049  (-0.001208  0.003208 -0.006121)
 57:   3222.58   0.000504    2.55  0.000049  ( 0.006974  0.000031  0.000366)
 58:   3229.81   0.000199    1.01  0.000019  ( 0.003519 -0.002620 -0.000134)
 59:   3239.84   0.000757    3.82  0.000073  (-0.004899 -0.006885 -0.001216)
 60:   3247.35   0.001008    5.10  0.000097  (-0.009583 -0.002150 -0.000664)
 61:   3257.61   0.000119    0.60  0.000011  (-0.000080  0.003320  0.000579)
 62:   3673.67   0.038515  194.64  0.003272  (-0.022957  0.004571 -0.052189)

--------------------------
THERMOCHEMISTRY AT 298.15K
--------------------------

Temperature         ... 298.15 K
Pressure            ... 1.00 atm
Total Mass          ... 180.16 AMU

Throughout the following assumptions are being made:
  (1) The electronic state is orbitally nondegenerate
  (2) There are no thermally accessible electronically excited states
  (3) Hindered rotations indicated by low frequency modes are not
      treated as such but are treated as vibrations and this may
      cause some error
  (4) All equations used are the standard statistical mechanics
      equations for an ideal gas
  (5) All vibrations are strictly harmonic

freq.      49.41  E(vib)   ...       0.52
freq.     101.92  E(vib)   ...       0.46
freq.     111.29  E(vib)   ...       0.45
freq.     115.11  E(vib)   ...       0.44
freq.     133.24  E(vib)   ...       0.42
freq.     203.92  E(vib)   ...       0.35
freq.     266.68  E(vib)   ...       0.29
freq.     311.94  E(vib)   ...       0.25
freq.     365.29  E(vib)   ...       0.22
freq.     396.16  E(vib)   ...       0.20
freq.     462.16  E(vib)   ...       0.16
freq.     505.65  E(vib)   ...       0.14
freq.     549.87  E(vib)   ...       0.12
freq.     573.10  E(vib)   ...       0.11
freq.     588.33  E(vib)   ...       0.10
freq.     612.01  E(vib)   ...       0.10
freq.     645.92  E(vib)   ...       0.09
freq.     673.36  E(vib)   ...       0.08
freq.     735.40  E(vib)   ...       0.06
freq.     752.63  E(vib)   ...       0.06
freq.     784.24  E(vib)   ...       0.05
freq.     807.49  E(vib)   ...       0.05
freq.     834.20  E(vib)   ...       0.04
freq.     886.21  E(vib)   ...       0.04
freq.     907.74  E(vib)   ...       0.03
freq.     976.66  E(vib)   ...       0.03
freq.    1001.22  E(vib)   ...       0.02
freq.    1019.70  E(vib)   ...       0.02
freq.    1041.52  E(vib)   ...       0.02
freq.    1054.95  E(vib)   ...       0.02
freq.    1090.79  E(vib)   ...       0.02
freq.    1134.15  E(vib)   ...       0.01
freq.    1156.40  E(vib)   ...       0.01
freq.    1174.75  E(vib)   ...       0.01
freq.    1198.60  E(vib)   ...       0.01
freq.    1232.29  E(vib)   ...       0.01
freq.    1276.91  E(vib)   ...       0.01
freq.    1337.50  E(vib)   ...       0.01
freq.    1355.68  E(vib)   ...       0.01
freq.    1367.58  E(vib)   ...       0.01
freq.    1400.22  E(vib)   ...       0.00
freq.    1439.96  E(vib)   ...       0.00
freq.    1475.96  E(vib)   ...       0.00
freq.    1521.47  E(vib)   ...       0.00
freq.    1638.70  E(vib)   ...       0.00
freq.    1662.51  E(vib)   ...       0.00
freq.    1710.61  E(vib)   ...       0.00
freq.    1786.92  E(vib)   ...       0.00
freq.    3109.51  E(vib)   ...       0.00
freq.    3203.44  E(vib)   ...       0.00
freq.    3222.58  E(vib)   ...       0.00
freq.    3229.81  E(vib)   ...       0.00
freq.    3239.84  E(vib)   ...       0.00
freq.    3247.35  E(vib)   ...       0.00
freq.    3257.61  E(vib)   ...       0.00
freq.    3673.67  E(vib)   ...       0.00

------------
INNER ENERGY
------------

The inner energy is: U= E(el) + E(ZPE) + E(vib) + E(rot) + E(trans)
    E(el)   - is the total energy from the electronic structure calculation
              = E(kin-el) + E(nuc-el) + E(el-el) + E(nuc-nuc)
    E(ZPE)  - the the zero temperature vibrational energy from the frequency calculation
    E(vib)  - the the finite temperature correction to E(ZPE) due to population
              of excited vibrational states
    E(rot)  - is the rotational thermal energy
    E(trans)- is the translational thermal energy

Summary of contributions to the inner energy U:
Electronic energy                ...   -647.87700159 Eh
Zero point energy                ...      0.15630999 Eh      98.09 kcal/mol
Thermal vibrational correction   ...      0.00805182 Eh       5.05 kcal/mol
Thermal rotational correction    ...      0.00141627 Eh       0.89 kcal/mol
Thermal translational correction ...      0.00141627 Eh       0.89 kcal/mol
-----------------------------------------------------------------------
Total thermal energy                   -647.70980724 Eh

Summary of corrections to the electronic energy:
(perhaps to be used in another calculation)
Total thermal correction                  0.01088436 Eh       6.83 kcal/mol
Non-thermal (ZPE) correction              0.15630999 Eh      98.09 kcal/mol
-----------------------------------------------------------------------
Total correction                          0.16719435 Eh     104.92 kcal/mol

--------
ENTHALPY
--------

The enthalpy is H = U + kB*T
                kB is Boltzmann's constant
Total free energy                 ...   -647.70980724 Eh
Thermal Enthalpy correction       ...      0.00094421 Eh       0.59 kcal/mol
-----------------------------------------------------------------------
Total Enthalpy                    ...   -647.70886303 Eh

Note: Only C1 symmetry has been detected, increase convergence thresholds
      if your molecule has a higher symmetry. Symmetry factor of 1.0 is
      used for the rotational entropy correction.

Note: Rotational entropy computed according to Herzberg
Infrared and Raman Spectra, Chapter V,1, Van Nostrand Reinhold, 1945
Point Group:  C1, Symmetry Number:   1
Rotational constants in cm-1:     0.038272     0.024987     0.018044

Vibrational entropy computed according to the QRRHO of S. Grimme
Chem.Eur.J. 2012 18 9955

-------
ENTROPY
-------

The entropy contributions are T*S = T*(S(el)+S(vib)+S(rot)+S(trans))
     S(el)   - electronic entropy
     S(vib)  - vibrational entropy
     S(rot)  - rotational entropy
     S(trans)- translational entropy
The entropies will be listed as multiplied by the temperature to get
units of energy

Electronic entropy                ...      0.00000000 Eh      0.00 kcal/mol
Vibrational entropy               ...      0.01386466 Eh      8.70 kcal/mol
Rotational entropy                ...      0.01468840 Eh      9.22 kcal/mol
Translational entropy             ...      0.01970496 Eh     12.37 kcal/mol
-----------------------------------------------------------------------
Final entropy term                ...      0.04825802 Eh     30.28 kcal/mol

In case the symmetry of your molecule has not been determined correctly
or in case you have a reason to use a different symmetry number we print
out the resulting rotational entropy values for sn=1,12 :
 --------------------------------------------------------
|  sn= 1 | S(rot)=       0.01468840 Eh      9.22 kcal/mol|
|  sn= 2 | S(rot)=       0.01403394 Eh      8.81 kcal/mol|
|  sn= 3 | S(rot)=       0.01365111 Eh      8.57 kcal/mol|
|  sn= 4 | S(rot)=       0.01337949 Eh      8.40 kcal/mol|
|  sn= 5 | S(rot)=       0.01316880 Eh      8.26 kcal/mol|
|  sn= 6 | S(rot)=       0.01299666 Eh      8.16 kcal/mol|
|  sn= 7 | S(rot)=       0.01285111 Eh      8.06 kcal/mol|

                             ****ORCA TERMINATED NORMALLY****
TOTAL RUN TIME: 0 days 0 hours 9 minutes 28 seconds 13 msec
