                         Program Version 5.0.3 -  RELEASE  -
|  1> ! B3LYP def2-SVP Freq CPCM(water) TightSCF
|  2>
|  3> * xyz 0 1
|  4> Na       0.00000       0.00000       0.00000
|  5> C        1.30000       0.00000       0.00000
|  6> C        2.50000       1.20000       0.00000
|  7> O        3.70000       1.20000       0.00000
|  8> O        2.50000      -1.20000       0.00000
|  9> H        1.30000       2.00000       0.00000
| 10> H        1.30000       1.20000       1.00000
| 11> H        1.30000       1.20000      -1.00000
| 12> **                         ****END OF INPUT****

CARTESIAN COORDINATES (ANGSTROEM)
---------------------------------
  Na     0.000000    0.000000    0.000000
  C      1.300000    0.000000    0.000000
  C      2.500000    1.200000    0.000000
  O      3.700000    1.200000    0.000000
  O      2.500000   -1.200000    0.000000
  H      1.300000    2.000000    0.000000
  H      1.300000    1.200000    1.000000
  H      1.300000    1.200000   -1.000000

 Total Charge           Charge          ....    0
 Multiplicity           Mult            ....    1
 Number of Electrons    NEL             ....   42
 Basis Dimension        Dim             ....   86

ORBITAL ENERGIES
----------------

  NO   OCC          E(Eh)            E(eV)
   0   2.0000     -38.582831     -1049.8922
   1   2.0000     -19.165325      -521.5150
   2   2.0000     -19.103906      -519.8437
   3   2.0000     -10.314166      -280.6627
   4   2.0000     -10.304669      -280.4043
   5   2.0000      -2.368734       -64.4565
   6   2.0000      -1.351312       -36.7711
   7   2.0000      -1.277739       -34.7691
   8   2.0000      -1.277282       -34.7566
   9   2.0000      -1.060232       -28.8504
  10   2.0000      -0.843927       -22.9644
  11   2.0000      -0.726874       -19.7792
  12   2.0000      -0.497394       -13.5348
  13   2.0000      -0.475390       -12.9360
  14   2.0000      -0.459929       -12.5153
  15   2.0000      -0.401456       -10.9242
  16   2.0000      -0.352820        -9.6007
  17   2.0000      -0.287242        -7.8163
  18   2.0000      -0.270591        -7.3632
  19   2.0000      -0.242575        -6.6008
  20   2.0000      -0.212698        -5.7878
  21   0.0000      -0.076003        -2.0681
  22   0.0000      -0.072993        -1.9862
  23   0.0000      -0.026066        -0.7093
  24   0.0000       0.016930         0.4607
  25   0.0000       0.017727         0.4824

MULLIKEN ATOMIC CHARGES
-----------------------
   0 Na:    0.730986
   1 C :   -0.368502
   2 C :    0.199121
   3 O :   -0.155012
   4 O :   -0.494151
   5 H :   -0.081427
   6 H :    0.084493
   7 H :    0.084493
Sum of atomic charges:   -0.0000000

LOEWDIN ATOMIC CHARGES
----------------------
   0 Na:    0.396698
   1 C :   -0.221416
   2 C :    0.021499
   3 O :   -0.131894
   4 O :   -0.432905
   5 H :    0.039853
   6 H :    0.164082
   7 H :    0.164082

  Mayer bond orders larger than 0.100000
B(  0-Na,  1-C ) :   0.4122 B(  0-Na,  4-O ) :   0.1591 B(  1-C ,  2-C ) :   0.5533
B(  1-C ,  4-O ) :   1.2269 B(  1-C ,  6-H ) :   0.5198 B(  1-C ,  7-H ) :   0.5198
B(  2-C ,  3-O ) :   2.1153 B(  2-C ,  4-O ) :   0.1064 B(  2-C ,  5-H ) :   0.4024
B(  5-H ,  6-H ) :   0.1862 B(  5-H ,  7-H ) :   0.1862

FINAL SINGLE POINT ENERGY      -389.634745461204

DIPOLE MOMENT
-------------
                                X             Y             Z
Electronic contribution:     -4.15312      -2.81857       0.00000
Nuclear contribution   :      0.25313       3.68486       0.00000
                        -----------------------------------------
Total Dipole Moment    :     -3.89999       0.86629       0.00000
                        -----------------------------------------
Magnitude (a.u.)       :      3.99504
Magnitude (Debye)      :     10.15459

VIBRATIONAL FREQUENCIES
-----------------------

Scaling factor for frequencies =  1.000000000  (already applied!)

   0:         0.00 cm**-1
   1:         0.00 cm**-1
   2:         0.00 cm**-1
   3:         0.00 cm**-1
   4:         0.00 cm**-1
   5:         0.00 cm**-1
   6:     -1785.81 cm**-1 ***imaginary mode***
   7:     -1479.81 cm**-1 ***imaginary mode***
   8:     -1142.85 cm**-1 ***imaginary mode***
   9:      -854.13 cm**-1 ***imaginary mode***
  10:      -832.83 cm**-1 ***imaginary mode***
  11:      -604.99 cm**-1 ***imaginary mode***
  12:      -522.89 cm**-1 ***imaginary mode***
  13:      -434.57 cm**-1 ***imaginary mode***
  14:       356.97 cm**-1
  15:       539.52 cm**-1
  16:       588.32 cm**-1
  17:       655.55 cm**-1
  18:       687.25 cm**-1
  19:      1225.35 cm**-1
  20:      1371.45 cm**-1
  21:      1629.16 cm**-1
  22:      1705.95 cm**-1
  23:      1771.54 cm**-1

IR SPECTRUM
-----------

 Mode   freq       eps      Int      T**2         TX        TY        TZ
       cm**-1   L/(mol*cm) km/mol    a.u.
----------------------------------------------------------------------------
 14:    356.97   0.001232    6.23  0.001077  (-0.018123  0.027361  0.000000)
 15:    539.52   0.019011   96.07  0.010996  (-0.009424 -0.104437  0.000001)
 16:    588.32   0.002364   11.95  0.001254  (-0.000006  0.000010  0.035411)
 17:    655.55   0.005352   27.05  0.002548  ( 0.045040 -0.022790 -0.000000)
 18:    687.25   0.000602    3.04  0.000273  ( 0.000004 -0.000005 -0.016531)
 19:   1225.35   0.004705   23.78  0.001198  (-0.000000  0.000001 -0.034614)
 20:   1371.45   0.011451   57.87  0.002606  (-0.047813  0.017876 -0.000000)
 21:   1629.16   0.111616  564.06  0.021380  ( 0.137400 -0.050011 -0.000000)
 22:   1705.95   0.028137  142.19  0.005147  ( 0.071023 -0.010137  0.000000)
 23:   1771.54   0.014882   75.21  0.002621  (-0.043552 -0.026919  0.000000)

--------------------------
THERMOCHEMISTRY AT 298.15K
--------------------------

Temperature         ... 298.15 K
Pressure            ... 1.00 atm
Total Mass          ... 82.03 AMU

Throughout the following assumptions are being made:
  (1) The electronic state is orbitally nondegenerate
  (2) There are no thermally accessible electronically excited states
  (3) Hindered rotations indicated by low frequency modes are not
      treated as such but are treated as vibrations and this may
      cause some error
  (4) All equations used are the standard statistical mechanics
      equations for an ideal gas
  (5) All vibrations are strictly harmonic

freq.     356.97  E(vib)   ...       0.22
freq.     539.52  E(vib)   ...       0.12
freq.     588.32  E(vib)   ...       0.10
freq.     655.55  E(vib)   ...       0.08
freq.     687.25  E(vib)   ...       0.07
freq.    1225.35  E(vib)   ...       0.01
freq.    1371.45  E(vib)   ...       0.01
freq.    1629.16  E(vib)   ...       0.00
freq.    1705.95  E(vib)   ...       0.00
freq.    1771.54  E(vib)   ...       0.00

------------
INNER ENERGY
------------

The inner energy is: U= E(el) + E(ZPE) + E(vib) + E(rot) + E(trans)
    E(el)   - is the total energy from the electronic structure calculation
              = E(kin-el) + E(nuc-el) + E(el-el) + E(nuc-nuc)
    E(ZPE)  - the the zero temperature vibrational energy from the frequency calculation
    E(vib)  - the the finite temperature correction to E(ZPE) due to population
              of excited vibrational states
    E(rot)  - is the rotational thermal energy
    E(trans)- is the translational thermal energy

Summary of contributions to the inner energy U:
Electronic energy                ...   -389.63474546 Eh
Zero point energy                ...      0.02399155 Eh      15.05 kcal/mol
Thermal vibrational correction   ...      0.00099642 Eh       0.63 kcal/mol
Thermal rotational correction    ...      0.00141627 Eh       0.89 kcal/mol
Thermal translational correction ...      0.00141627 Eh       0.89 kcal/mol
-----------------------------------------------------------------------
Total thermal energy                   -389.60692495 Eh

Summary of corrections to the electronic energy:
(perhaps to be used in another calculation)
Total thermal correction                  0.00382897 Eh       2.40 kcal/mol
Non-thermal (ZPE) correction              0.02399155 Eh      15.05 kcal/mol
-----------------------------------------------------------------------
Total correction                          0.02782051 Eh      17.46 kcal/mol

--------
ENTHALPY
--------

The enthalpy is H = U + kB*T
                kB is Boltzmann's constant
Total free energy                 ...   -389.60692495 Eh
Thermal Enthalpy correction       ...      0.00094421 Eh       0.59 kcal/mol
-----------------------------------------------------------------------
Total Enthalpy                    ...   -389.60598074 Eh

Note: Rotational entropy computed according to Herzberg
Infrared and Raman Spectra, Chapter V,1, Van Nostrand Reinhold, 1945
Point Group:  Cs, Symmetry Number:   1
Rotational constants in cm-1:     0.290801     0.104219     0.078157

Vibrational entropy computed according to the QRRHO of S. Grimme
Chem.Eur.J. 2012 18 9955

-------
ENTROPY
-------

The entropy contributions are T*S = T*(S(el)+S(vib)+S(rot)+S(trans))
     S(el)   - electronic entropy
     S(vib)  - vibrational entropy
     S(rot)  - rotational entropy
     S(trans)- translational entropy
The entropies will be listed as multiplied by the temperature to get
units of energy

Electronic entropy                ...      0.00000000 Eh      0.00 kcal/mol
Vibrational entropy               ...      0.00139419 Eh      0.87 kcal/mol
Rotational entropy                ...      0.01236479 Eh      7.76 kcal/mol
Translational entropy             ...      0.01859077 Eh     11.67 kcal/mol
-----------------------------------------------------------------------
Final entropy term                ...      0.03234975 Eh     20.30 kcal/mol

In case the symmetry of your molecule has not been determined correctly
or in case you have a reason to use a different symmetry number we print
out the resulting rotational entropy values for sn=1,12 :
 --------------------------------------------------------
|  sn= 1 | S(rot)=       0.01236479 Eh      7.76 kcal/mol|
|  sn= 2 | S(rot)=       0.01171034 Eh      7.35 kcal/mol|
|  sn= 3 | S(rot)=       0.01132751 Eh      7.11 kcal/mol|
|  sn= 4 | S(rot)=       0.01105588 Eh      6.94 kcal/mol|
|  sn= 5 | S(rot)=       0.01084519 Eh      6.81 kcal/mol|
|  sn= 6 | S(rot)=       0.01067305 Eh      6.70 kcal/mol|
|  sn= 7 | S(rot)=       0.01052750 Eh      6.61 kcal/mol|
|  sn= 8 | S(rot)=       0.01040143 Eh      6.53 kcal/mol|
|  sn= 9 | S(rot)=       0.01029022 Eh      6.46 kcal/mol|
|  sn=10 | S(rot)=       0.01019074 Eh      6.39 kcal/mol|
|  sn=11 | S(rot)=       0.01010075 Eh      6.34 kcal/mol|
|  sn=12 | S(rot)=       0.01001859 Eh      6.29 kcal/mol|
 --------------------------------------------------------

-------------------
GIBBS FREE ENERGY
-------------------

The Gibbs free energy is G = H - T*S

Total enthalpy                    ...   -389.60598074 Eh
Total entropy correction          ...     -0.03234975 Eh    -20.30 kcal/mol
-----------------------------------------------------------------------
Final Gibbs free energy         ...   -389.63833049 Eh

For completeness - the Gibbs free energy minus the electronic energy
G-E(el)                           ...     -0.00358503 Eh     -2.25 kcal/mol

                             ****ORCA TERMINATED NORMALLY****
TOTAL RUN TIME: 0 days 0 hours 0 minutes 44 seconds 482 msec
