                         Program Version 5.0.3 -  RELEASE  -
|  1> # avogadro generated ORCA input file
|  2> # Basic Mode
|  3> #
|  4> ! RHF OPT FREQ def2-SVP
|  5>
|  6> * xyz 0 1
|  7>    C        4.00644        1.11162        0.00000
|  8>    C        3.99115        2.51232       -0.00000
|  9>    C        2.77303        3.21182       -0.00000
| 10>    C        1.57790        2.46764        0.00000
| 11>    O        0.32861        3.03408        0.00000
| 12>    C        1.59805        1.07274        0.00000
| 13>    C        2.81303        0.39403        0.00000
| 14>    C        2.68146        4.70137       -0.00000
| 15>    O        3.83186        5.40013       -0.00000
| 16>    O        1.59332        5.26314        0.00000
| 17>    H        4.95457        0.57747       -0.00000
| 18>    H        4.95458        3.00722        0.00000
| 19>    H        0.42624        4.01340       -0.00000
| 20>    H        0.66229        0.51904       -0.00000
| 21>    H        2.82684       -0.69321       -0.00000
| 22>    H        4.66681        4.90709        0.00000
| 23> *
| 24>
| 25>
| 26>                          ****END OF INPUT****
 Total Charge           Charge          ....    0
 Multiplicity           Mult            ....    1
 Number of Electrons    NEL             ....   72
FINAL SINGLE POINT ENERGY      -492.800748084528
FINAL SINGLE POINT ENERGY      -492.809834844191
FINAL SINGLE POINT ENERGY      -492.810623023801
FINAL SINGLE POINT ENERGY      -492.810870500574
FINAL SINGLE POINT ENERGY      -492.810890959620
FINAL SINGLE POINT ENERGY      -492.810894499018
                    ***********************HURRAY********************

CARTESIAN COORDINATES (ANGSTROEM)
---------------------------------
  C      4.017771    1.124583   -0.000000
  C      3.975234    2.497817   -0.000000
  C      2.761381    3.206712    0.000000
  C      1.558823    2.474746    0.000000
  O      0.362684    3.029768    0.000000
  C      1.607698    1.073269    0.000000
  C      2.813022    0.414275   -0.000000
  C      2.693594    4.694953   -0.000000
  O      3.821186    5.379022    0.000000
  O      1.659674    5.286143   -0.000000
  H      4.965549    0.605605   -0.000000
  H      4.921939    3.022866   -0.000000
  H      0.439217    3.982653    0.000000
  H      0.669372    0.537664    0.000000
  H      2.826660   -0.667948   -0.000000
  H      4.592377    4.837772    0.000000

 Multiplicity           Mult            ....    1
 Number of Electrons    NEL             ....   72
 Basis Dimension        Dim             ....  170

ORBITAL ENERGIES
----------------

  NO   OCC          E(Eh)            E(eV)
   0   2.0000     -20.616233      -560.9962
   1   2.0000     -20.582108      -560.0676
   2   2.0000     -20.549715      -559.1862
   3   2.0000     -11.405034      -310.3468
   4   2.0000     -11.335004      -308.4411
   5   2.0000     -11.280289      -306.9523
   6   2.0000     -11.269127      -306.6485
   7   2.0000     -11.263132      -306.4854
   8   2.0000     -11.250663      -306.1461
   9   2.0000     -11.245917      -306.0170
  10   2.0000      -1.477762       -40.2119
  11   2.0000      -1.416494       -38.5448
  12   2.0000      -1.370825       -37.3020
  13   2.0000      -1.168158       -31.7872
  14   2.0000      -1.051611       -28.6158
  15   2.0000      -1.023977       -27.8638
  16   2.0000      -0.901092       -24.5200
  17   2.0000      -0.865980       -23.5645
  18   2.0000      -0.846072       -23.0228
  19   2.0000      -0.791302       -21.5324
  20   2.0000      -0.735272       -20.0078
  21   2.0000      -0.699994       -19.0478
  22   2.0000      -0.682614       -18.5749
  23   2.0000      -0.661550       -18.0017
  24   2.0000      -0.656504       -17.8644
  25   2.0000      -0.634692       -17.2708
  26   2.0000      -0.604831       -16.4583
  27   2.0000      -0.591727       -16.1017
  28   2.0000      -0.581448       -15.8220
  29   2.0000      -0.561900       -15.2901
  30   2.0000      -0.526922       -14.3383
  31   2.0000      -0.507142       -13.8000
  32   2.0000      -0.499402       -13.5894
  33   2.0000      -0.463402       -12.6098
  34   2.0000      -0.374654       -10.1949
  35   2.0000      -0.333192        -9.0666
  36   0.0000       0.075623         2.0578
  37   0.0000       0.128579         3.4988
  38   0.0000       0.153396         4.1741
  39   0.0000       0.189951         5.1688
  40   0.0000       0.223936         6.0936

MULLIKEN ATOMIC CHARGES
-----------------------
   0 C :   -0.079079
   1 C :    0.027245
   2 C :   -0.383813
   3 C :    0.308489
   4 O :   -0.321363
   5 C :   -0.104819
   6 C :    0.040279
   7 C :    0.617306
   8 O :   -0.288252
   9 O :   -0.418745
  10 H :    0.042000
  11 H :    0.020328
  12 H :    0.236623
  13 H :    0.051474
  14 H :    0.053543
  15 H :    0.198784
Sum of atomic charges:   -0.0000000

LOEWDIN ATOMIC CHARGES
----------------------
   0 C :   -0.068344
   1 C :    0.012639
   2 C :   -0.178936
   3 C :    0.146403
   4 O :   -0.067581
   5 C :   -0.062205
   6 C :    0.034216
   7 C :    0.200953
   8 O :   -0.047979
   9 O :   -0.245380
  10 H :    0.028631
  11 H :    0.020773
  12 H :    0.073975
  13 H :    0.037165
  14 H :    0.034339
  15 H :    0.081329

  Mayer bond orders larger than 0.100000
B(  0-C ,  1-C ) :   1.5372 B(  0-C ,  6-C ) :   1.3275 B(  0-C , 10-H ) :   1.0030
B(  1-C ,  2-C ) :   1.2997 B(  1-C , 11-H ) :   0.9896 B(  2-C ,  3-C ) :   1.3480
B(  2-C ,  7-C ) :   0.9635 B(  3-C ,  4-O ) :   1.2188 B(  3-C ,  5-C ) :   1.3487
B(  4-O , 12-H ) :   0.9132 B(  5-C ,  6-C ) :   1.4776 B(  5-C , 13-H ) :   1.0068
B(  6-C , 14-H ) :   0.9986 B(  7-C ,  8-O ) :   1.1775 B(  7-C ,  9-O ) :   1.9153
B(  8-O , 15-H ) :   0.9622

FINAL SINGLE POINT ENERGY      -492.810895397167

DIPOLE MOMENT
-------------
                                X             Y             Z
Electronic contribution:     -1.78318       4.14818       0.00000
Nuclear contribution   :      3.17569      -5.39063       0.00000
                        -----------------------------------------
Total Dipole Moment    :      1.39251      -1.24245       0.00000
                        -----------------------------------------
Magnitude (a.u.)       :      1.86622
Magnitude (Debye)      :      4.74355

VIBRATIONAL FREQUENCIES
-----------------------

Scaling factor for frequencies =  1.000000000  (already applied!)

   0:         0.00 cm**-1
   1:         0.00 cm**-1
   2:         0.00 cm**-1
   3:         0.00 cm**-1
   4:         0.00 cm**-1
   5:         0.00 cm**-1
   6:       -66.48 cm**-1 ***imaginary mode***
   7:       150.36 cm**-1
   8:       271.30 cm**-1
   9:       288.48 cm**-1
  10:       368.05 cm**-1
  11:       398.97 cm**-1
  12:       467.65 cm**-1
  13:       492.49 cm**-1
  14:       567.40 cm**-1
  15:       586.62 cm**-1
  16:       611.54 cm**-1
  17:       717.93 cm**-1
  18:       756.40 cm**-1
  19:       775.77 cm**-1
  20:       835.95 cm**-1
  21:       845.48 cm**-1
  22:       887.95 cm**-1
  23:       926.01 cm**-1
  24:       965.25 cm**-1
  25:      1063.45 cm**-1
  26:      1121.20 cm**-1
  27:      1124.76 cm**-1
  28:      1182.91 cm**-1
  29:      1222.07 cm**-1
  30:      1253.26 cm**-1
  31:      1276.87 cm**-1
  32:      1337.80 cm**-1
  33:      1364.57 cm**-1
  34:      1458.03 cm**-1
  35:      1479.52 cm**-1
  36:      1539.55 cm**-1
  37:      1621.57 cm**-1
  38:      1655.07 cm**-1
  39:      1770.11 cm**-1
  40:      1822.32 cm**-1
  41:      1997.09 cm**-1
  42:      3336.86 cm**-1
  43:      3353.84 cm**-1
  44:      3374.91 cm**-1
  45:      3382.54 cm**-1
  46:      3938.71 cm**-1
  47:      4230.89 cm**-1

IR SPECTRUM
-----------

 Mode   freq       eps      Int      T**2         TX        TY        TZ
       cm**-1   L/(mol*cm) km/mol    a.u.
----------------------------------------------------------------------------
  7:    150.36   0.000234    1.18  0.000486  (-0.000000 -0.000000 -0.022052)
  8:    271.30   0.000565    2.85  0.000649  ( 0.000000  0.000000 -0.025484)
  9:    288.48   0.002814   14.22  0.003044  (-0.036153 -0.041682  0.000000)
 10:    368.05   0.014807   74.83  0.012555  ( 0.000000  0.000000  0.112048)
 11:    398.97   0.000520    2.63  0.000407  ( 0.017111 -0.010688 -0.000000)
 12:    467.65   0.001836    9.28  0.001225  ( 0.003282  0.034847 -0.000000)
 13:    492.49   0.003958   20.00  0.002508  (-0.000000 -0.000000 -0.050079)
 14:    567.40   0.003425   17.31  0.001884  ( 0.041602  0.012377 -0.000000)
 15:    586.62   0.004396   22.21  0.002338  ( 0.000000  0.000000 -0.048357)
 16:    611.54   0.000251    1.27  0.000128  ( 0.008070 -0.007950  0.000000)
 17:    717.93   0.003644   18.41  0.001584  (-0.001119 -0.039782  0.000000)
 18:    756.40   0.015745   79.57  0.006496  (-0.000000 -0.000000  0.080597)
 19:    775.77   0.006316   31.92  0.002541  ( 0.000000  0.000000 -0.050405)
 20:    835.95   0.018667   94.34  0.006968  ( 0.000000 -0.000000 -0.083477)
 21:    845.48   0.000197    1.00  0.000073  ( 0.007034 -0.004828 -0.000000)
 22:    887.95   0.004315   21.81  0.001516  (-0.000000  0.000000  0.038941)
 23:    926.01   0.002981   15.06  0.001004  (-0.024336  0.020303  0.000000)
 24:    965.25   0.003916   19.79  0.001266  ( 0.000000 -0.000000 -0.035583)
 25:   1063.45   0.000171    0.86  0.000050  ( 0.000000  0.000000  0.007075)
 26:   1121.20   0.000227    1.15  0.000063  (-0.000000 -0.000000  0.007948)
 27:   1124.76   0.002592   13.10  0.000719  (-0.026810  0.000716 -0.000000)
 28:   1182.91   0.000081    0.41  0.000021  ( 0.001253  0.004439  0.000000)
 29:   1222.07   0.012613   63.74  0.003221  ( 0.047462  0.031115 -0.000000)
 30:   1253.26   0.004412   22.30  0.001099  (-0.025376 -0.021325 -0.000000)
 31:   1276.87   0.002780   14.05  0.000680  ( 0.014833  0.021436  0.000000)
 32:   1337.80   0.042201  213.27  0.009844  (-0.089656 -0.042496 -0.000000)
 33:   1364.57   0.011946   60.37  0.002732  ( 0.049361 -0.017190  0.000000)
 34:   1458.03   0.013502   68.23  0.002890  (-0.053096  0.008407  0.000000)
 35:   1479.52   0.054443  275.13  0.011483  ( 0.086711  0.062964  0.000000)
 36:   1539.55   0.077733  392.83  0.015756  (-0.014894 -0.124638 -0.000000)
 37:   1621.57   0.009089   45.93  0.001749  ( 0.041790 -0.001649 -0.000000)
 38:   1655.07   0.029808  150.64  0.005620  ( 0.074811 -0.004852 -0.000000)
 39:   1770.11   0.016912   85.46  0.002981  ( 0.049029  0.024034 -0.000000)
 40:   1822.32   0.013949   70.49  0.002389  ( 0.003489 -0.048750 -0.000000)
 41:   1997.09   0.109344  552.58  0.017086  ( 0.098301 -0.086156  0.000000)
 42:   3336.86   0.002716   13.73  0.000254  (-0.011420 -0.011117 -0.000000)
 43:   3353.84   0.001751    8.85  0.000163  ( 0.004201  0.012052  0.000000)
 44:   3374.91   0.001760    8.89  0.000163  (-0.012415  0.002928  0.000000)
 45:   3382.54   0.000452    2.29  0.000042  ( 0.000433 -0.006445  0.000000)
 46:   3938.71   0.071967  363.69  0.005702  ( 0.004120 -0.075399 -0.000000)
 47:   4230.89   0.020072  101.44  0.001480  ( 0.033777 -0.018429  0.000000)

--------------------------
THERMOCHEMISTRY AT 298.15K
--------------------------

Temperature         ... 298.15 K
Pressure            ... 1.00 atm
Total Mass          ... 138.12 AMU

Throughout the following assumptions are being made:
  (1) The electronic state is orbitally nondegenerate
  (2) There are no thermally accessible electronically excited states
  (3) Hindered rotations indicated by low frequency modes are not
      treated as such but are treated as vibrations and this may
      cause some error
  (4) All equations used are the standard statistical mechanics
      equations for an ideal gas
  (5) All vibrations are strictly harmonic

freq.     150.36  E(vib)   ...       0.40
freq.     271.30  E(vib)   ...       0.29
freq.     288.48  E(vib)   ...       0.27
freq.     368.05  E(vib)   ...       0.21
freq.     398.97  E(vib)   ...       0.19
freq.     467.65  E(vib)   ...       0.16
freq.     492.49  E(vib)   ...       0.14
freq.     567.40  E(vib)   ...       0.11
freq.     586.62  E(vib)   ...       0.11
freq.     611.54  E(vib)   ...       0.10
freq.     717.93  E(vib)   ...       0.07
freq.     756.40  E(vib)   ...       0.06
freq.     775.77  E(vib)   ...       0.05
freq.     835.95  E(vib)   ...       0.04
freq.     845.48  E(vib)   ...       0.04
freq.     887.95  E(vib)   ...       0.04
freq.     926.01  E(vib)   ...       0.03
freq.     965.25  E(vib)   ...       0.03
freq.    1063.45  E(vib)   ...       0.02
freq.    1121.20  E(vib)   ...       0.01
freq.    1124.76  E(vib)   ...       0.01
freq.    1182.91  E(vib)   ...       0.01
freq.    1222.07  E(vib)   ...       0.01
freq.    1253.26  E(vib)   ...       0.01
freq.    1276.87  E(vib)   ...       0.01
freq.    1337.80  E(vib)   ...       0.01
freq.    1364.57  E(vib)   ...       0.01
freq.    1458.03  E(vib)   ...       0.00
freq.    1479.52  E(vib)   ...       0.00
freq.    1539.55  E(vib)   ...       0.00
freq.    1621.57  E(vib)   ...       0.00
freq.    1655.07  E(vib)   ...       0.00
freq.    1770.11  E(vib)   ...       0.00
freq.    1822.32  E(vib)   ...       0.00
freq.    1997.09  E(vib)   ...       0.00
freq.    3336.86  E(vib)   ...       0.00
freq.    3353.84  E(vib)   ...       0.00
freq.    3374.91  E(vib)   ...       0.00
freq.    3382.54  E(vib)   ...       0.00
freq.    3938.71  E(vib)   ...       0.00
freq.    4230.89  E(vib)   ...       0.00

------------
INNER ENERGY
------------

The inner energy is: U= E(el) + E(ZPE) + E(vib) + E(rot) + E(trans)
    E(el)   - is the total energy from the electronic structure calculation
              = E(kin-el) + E(nuc-el) + E(el-el) + E(nuc-nuc)
    E(ZPE)  - the the zero temperature vibrational energy from the frequency calculation
    E(vib)  - the the finite temperature correction to E(ZPE) due to population
              of excited vibrational states
    E(rot)  - is the rotational thermal energy
    E(trans)- is the translational thermal energy

Summary of contributions to the inner energy U:
Electronic energy                ...   -492.81089540 Eh
Zero point energy                ...      0.12944890 Eh      81.23 kcal/mol
Thermal vibrational correction   ...      0.00390769 Eh       2.45 kcal/mol
Thermal rotational correction    ...      0.00141627 Eh       0.89 kcal/mol
Thermal translational correction ...      0.00141627 Eh       0.89 kcal/mol
-----------------------------------------------------------------------
Total thermal energy                   -492.67470626 Eh

Summary of corrections to the electronic energy:
(perhaps to be used in another calculation)
Total thermal correction                  0.00674024 Eh       4.23 kcal/mol
Non-thermal (ZPE) correction              0.12944890 Eh      81.23 kcal/mol
-----------------------------------------------------------------------
Total correction                          0.13618914 Eh      85.46 kcal/mol

--------
ENTHALPY
--------

The enthalpy is H = U + kB*T
                kB is Boltzmann's constant
Total free energy                 ...   -492.67470626 Eh
Thermal Enthalpy correction       ...      0.00094421 Eh       0.59 kcal/mol
-----------------------------------------------------------------------
Total Enthalpy                    ...   -492.67376205 Eh

Note: Rotational entropy computed according to Herzberg
Infrared and Raman Spectra, Chapter V,1, Van Nostrand Reinhold, 1945
Point Group:  Cs, Symmetry Number:   1
Rotational constants in cm-1:     0.079175     0.040866     0.026954

Vibrational entropy computed according to the QRRHO of S. Grimme
Chem.Eur.J. 2012 18 9955

-------
ENTROPY
-------

The entropy contributions are T*S = T*(S(el)+S(vib)+S(rot)+S(trans))
     S(el)   - electronic entropy
     S(vib)  - vibrational entropy
     S(rot)  - rotational entropy
     S(trans)- translational entropy
The entropies will be listed as multiplied by the temperature to get
units of energy

Electronic entropy                ...      0.00000000 Eh      0.00 kcal/mol
Vibrational entropy               ...      0.00595662 Eh      3.74 kcal/mol
Rotational entropy                ...      0.01392353 Eh      8.74 kcal/mol
Translational entropy             ...      0.01932865 Eh     12.13 kcal/mol
-----------------------------------------------------------------------
Final entropy term                ...      0.03920880 Eh     24.60 kcal/mol

In case the symmetry of your molecule has not been determined correctly
or in case you have a reason to use a different symmetry number we print
out the resulting rotational entropy values for sn=1,12 :
 --------------------------------------------------------
|  sn= 1 | S(rot)=       0.01392353 Eh      8.74 kcal/mol|
|  sn= 2 | S(rot)=       0.01326907 Eh      8.33 kcal/mol|
|  sn= 3 | S(rot)=       0.01288624 Eh      8.09 kcal/mol|
|  sn= 4 | S(rot)=       0.01261462 Eh      7.92 kcal/mol|
|  sn= 5 | S(rot)=       0.01240393 Eh      7.78 kcal/mol|
|  sn= 6 | S(rot)=       0.01223178 Eh      7.68 kcal/mol|
|  sn= 7 | S(rot)=       0.01208624 Eh      7.58 kcal/mol|
|  sn= 8 | S(rot)=       0.01196016 Eh      7.51 kcal/mol|
|  sn= 9 | S(rot)=       0.01184895 Eh      7.44 kcal/mol|
|  sn=10 | S(rot)=       0.01174947 Eh      7.37 kcal/mol|
|  sn=11 | S(rot)=       0.01165948 Eh      7.32 kcal/mol|
|  sn=12 | S(rot)=       0.01157733 Eh      7.26 kcal/mol|
 --------------------------------------------------------

-------------------
GIBBS FREE ENERGY
-------------------

The Gibbs free energy is G = H - T*S

Total enthalpy                    ...   -492.67376205 Eh
Total entropy correction          ...     -0.03920880 Eh    -24.60 kcal/mol
-----------------------------------------------------------------------
Final Gibbs free energy         ...   -492.71297085 Eh

For completeness - the Gibbs free energy minus the electronic energy

                             ****ORCA TERMINATED NORMALLY****
TOTAL RUN TIME: 0 days 0 hours 5 minutes 14 seconds 474 msec
