                         Program Version 5.0.3 -  RELEASE  -
|  1> ! B3LYP def2-SVP Freq CPCM(acetone) TightSCF
|  2>
|  3> * xyz 0 1
|  4>    C        4.00644        1.11162        0.00000
|  5>    C        3.99115        2.51232       -0.00000
|  6>    C        2.77303        3.21182       -0.00000
|  7>    C        1.57790        2.46764        0.00000
|  8>    O        0.32861        3.03408        0.00000
|  9>    C        1.59805        1.07274        0.00000
| 10>    C        2.81303        0.39403        0.00000
| 11>    C        2.68146        4.70137       -0.00000
| 12>    O        3.83186        5.40013       -0.00000
| 13>    O        1.59332        5.26314        0.00000
| 14>    H        4.95457        0.57747       -0.00000
| 15>    H        4.95458        3.00722        0.00000
| 16>    H        0.42624        4.01340       -0.00000
| 17>    H        0.66229        0.51904       -0.00000
| 18>    H        2.82684       -0.69321       -0.00000
| 19>    H        4.66681        4.90709        0.00000
| 20> **                         ****END OF INPUT****

CARTESIAN COORDINATES (ANGSTROEM)
---------------------------------
  C      4.006440    1.111620    0.000000
  C      3.991150    2.512320   -0.000000
  C      2.773030    3.211820   -0.000000
  C      1.577900    2.467640    0.000000
  O      0.328610    3.034080    0.000000
  C      1.598050    1.072740    0.000000
  C      2.813030    0.394030    0.000000
  C      2.681460    4.701370   -0.000000
  O      3.831860    5.400130   -0.000000
  O      1.593320    5.263140    0.000000
  H      4.954570    0.577470   -0.000000
  H      4.954580    3.007220    0.000000
  H      0.426240    4.013400   -0.000000
  H      0.662290    0.519040   -0.000000
  H      2.826840   -0.693210   -0.000000
  H      4.666810    4.907090    0.000000

 Total Charge           Charge          ....    0
 Multiplicity           Mult            ....    1
 Number of Electrons    NEL             ....   72
 Basis Dimension        Dim             ....  170

ORBITAL ENERGIES
----------------

  NO   OCC          E(Eh)            E(eV)
   0   2.0000     -19.186517      -522.0917
   1   2.0000     -19.151779      -521.1464
   2   2.0000     -19.139083      -520.8009
   3   2.0000     -10.338253      -281.3182
   4   2.0000     -10.261714      -279.2354
   5   2.0000     -10.209022      -277.8016
   6   2.0000     -10.208605      -277.7903
   7   2.0000     -10.200473      -277.5690
   8   2.0000     -10.190816      -277.3062
   9   2.0000     -10.189994      -277.2838
  10   2.0000      -1.098333       -29.8871
  11   2.0000      -1.041415       -28.3384
  12   2.0000      -1.014896       -27.6167
  13   2.0000      -0.857044       -23.3213
  14   2.0000      -0.765959       -20.8428
  15   2.0000      -0.741091       -20.1661
  16   2.0000      -0.655689       -17.8422
  17   2.0000      -0.633787       -17.2462
  18   2.0000      -0.607568       -16.5328
  19   2.0000      -0.569473       -15.4961
  20   2.0000      -0.517626       -14.0853
  21   2.0000      -0.491121       -13.3641
  22   2.0000      -0.479207       -13.0399
  23   2.0000      -0.465288       -12.6611
  24   2.0000      -0.454048       -12.3553
  25   2.0000      -0.443333       -12.0637
  26   2.0000      -0.409278       -11.1370
  27   2.0000      -0.395725       -10.7682
  28   2.0000      -0.385225       -10.4825
  29   2.0000      -0.378340       -10.2952
  30   2.0000      -0.357592        -9.7306
  31   2.0000      -0.344908        -9.3854
  32   2.0000      -0.334081        -9.0908
  33   2.0000      -0.294394        -8.0109
  34   2.0000      -0.272747        -7.4218
  35   2.0000      -0.235623        -6.4116
  36   0.0000      -0.056569        -1.5393
  37   0.0000      -0.006844        -0.1862
  38   0.0000       0.043719         1.1897
  39   0.0000       0.052160         1.4193
  40   0.0000       0.082832         2.2540

MULLIKEN ATOMIC CHARGES
-----------------------
   0 C :   -0.006132
   1 C :   -0.032836
   2 C :   -0.053450
   3 C :    0.128362
   4 O :   -0.231323
   5 C :   -0.042363
   6 C :    0.030434
   7 C :    0.235142
   8 O :   -0.178663
   9 O :   -0.287322
  10 H :    0.003605
  11 H :    0.004455
  12 H :    0.196034
  13 H :   -0.005986
  14 H :    0.013234
  15 H :    0.226809
Sum of atomic charges:   -0.0000000

LOEWDIN ATOMIC CHARGES
----------------------
   0 C :   -0.047653
   1 C :   -0.000521
   2 C :   -0.132470
   3 C :    0.083038
   4 O :   -0.077249
   5 C :   -0.051830
   6 C :    0.005465
   7 C :    0.118374
   8 O :   -0.028438
   9 O :   -0.204692
  10 H :    0.035958
  11 H :    0.037822
  12 H :    0.061400
  13 H :    0.039138
  14 H :    0.040648
  15 H :    0.121010

  Mayer bond orders larger than 0.100000
B(  0-C ,  1-C ) :   1.4353 B(  0-C ,  6-C ) :   1.3390 B(  0-C , 10-H ) :   0.9896
B(  1-C ,  2-C ) :   1.2759 B(  1-C , 11-H ) :   0.9868 B(  2-C ,  3-C ) :   1.2762
B(  2-C ,  7-C ) :   0.9519 B(  3-C ,  4-O ) :   1.2821 B(  3-C ,  5-C ) :   1.3396
B(  4-O , 12-H ) :   0.8892 B(  5-C ,  6-C ) :   1.3832 B(  5-C , 13-H ) :   0.9977
B(  6-C , 14-H ) :   0.9911 B(  7-C ,  8-O ) :   1.2879 B(  7-C ,  9-O ) :   1.9311
B(  8-O , 15-H ) :   0.9274 B(  9-O , 12-H ) :   0.1347

FINAL SINGLE POINT ENERGY      -495.433203395627

DIPOLE MOMENT
-------------
                                X             Y             Z
Electronic contribution:     -1.38896       4.27467       0.00000
Nuclear contribution   :      3.29502      -5.37376       0.00000
                        -----------------------------------------
Total Dipole Moment    :      1.90606      -1.09908       0.00000
                        -----------------------------------------
Magnitude (a.u.)       :      2.20024
Magnitude (Debye)      :      5.59257

VIBRATIONAL FREQUENCIES
-----------------------

Scaling factor for frequencies =  1.000000000  (already applied!)

   0:         0.00 cm**-1
   1:         0.00 cm**-1
   2:         0.00 cm**-1
   3:         0.00 cm**-1
   4:         0.00 cm**-1
   5:         0.00 cm**-1
   6:        94.41 cm**-1
   7:       112.14 cm**-1
   8:       238.26 cm**-1
   9:       254.40 cm**-1
  10:       304.59 cm**-1
  11:       369.68 cm**-1
  12:       436.75 cm**-1
  13:       444.47 cm**-1
  14:       523.62 cm**-1
  15:       538.43 cm**-1
  16:       566.57 cm**-1
  17:       661.71 cm**-1
  18:       697.62 cm**-1
  19:       707.17 cm**-1
  20:       746.11 cm**-1
  21:       767.06 cm**-1
  22:       797.59 cm**-1
  23:       845.24 cm**-1
  24:       864.95 cm**-1
  25:       952.16 cm**-1
  26:      1010.67 cm**-1
  27:      1039.93 cm**-1
  28:      1060.80 cm**-1
  29:      1102.05 cm**-1
  30:      1133.29 cm**-1
  31:      1159.01 cm**-1
  32:      1215.34 cm**-1
  33:      1235.87 cm**-1
  34:      1301.92 cm**-1
  35:      1357.42 cm**-1
  36:      1402.59 cm**-1
  37:      1479.76 cm**-1
  38:      1516.60 cm**-1
  39:      1645.74 cm**-1
  40:      1672.29 cm**-1
  41:      1749.02 cm**-1
  42:      3228.39 cm**-1
  43:      3241.25 cm**-1
  44:      3252.99 cm**-1
  45:      3276.54 cm**-1
  46:      3463.93 cm**-1
  47:      3773.51 cm**-1

IR SPECTRUM
-----------

 Mode   freq       eps      Int      T**2         TX        TY        TZ
       cm**-1   L/(mol*cm) km/mol    a.u.
----------------------------------------------------------------------------
  6:     94.41   0.002458   12.42  0.008126  (-0.000000 -0.000000 -0.090145)
  7:    112.14   0.003021   15.27  0.008408  ( 0.000000  0.000000 -0.091693)
  8:    238.26   0.008666   43.79  0.011350  (-0.000000 -0.000000  0.106535)
  9:    254.40   0.006003   30.34  0.007364  (-0.054240 -0.066499 -0.000000)
 10:    304.59   0.015836   80.03  0.016225  ( 0.000000 -0.000000 -0.127377)
 11:    369.68   0.001215    6.14  0.001026  ( 0.030454 -0.009908  0.000000)
 12:    436.75   0.001463    7.39  0.001045  ( 0.003154  0.032174 -0.000000)
 13:    444.47   0.005186   26.21  0.003641  ( 0.000000  0.000000  0.060339)
 14:    523.62   0.007239   36.58  0.004314  ( 0.062369  0.020601 -0.000000)
 15:    538.43   0.003271   16.53  0.001896  (-0.000000 -0.000000  0.043539)
 16:    566.57   0.000752    3.80  0.000414  (-0.013589  0.015150 -0.000000)
 17:    661.71   0.003425   17.31  0.001615  ( 0.003159 -0.040065 -0.000000)
 18:    697.62   0.032575  164.62  0.014572  ( 0.000000  0.000000  0.120713)
 19:    707.17   0.000271    1.37  0.000120  (-0.000000  0.000000 -0.010939)
 20:    746.11   0.011433   57.78  0.004782  ( 0.000000 -0.000000  0.069152)
 21:    767.06   0.001065    5.38  0.000433  ( 0.009921  0.018304 -0.000000)
 22:    797.59   0.000690    3.49  0.000270  (-0.000000 -0.000000 -0.016434)
 23:    845.24   0.009529   48.15  0.003518  ( 0.055863 -0.019932 -0.000000)
 24:    864.95   0.001505    7.61  0.000543  ( 0.000000  0.000000  0.023301)
 25:    952.16   0.000191    0.97  0.000063  ( 0.000000  0.000000  0.007919)
 26:   1010.67   0.000109    0.55  0.000034  ( 0.000000  0.000000 -0.005793)
 27:   1039.93   0.011771   59.48  0.003532  ( 0.039249  0.044628 -0.000000)
 28:   1060.80   0.002779   14.04  0.000817  (-0.021404  0.018957  0.000000)
 29:   1102.05   0.029457  148.86  0.008341  ( 0.075605  0.051237  0.000000)
 30:   1133.29   0.006526   32.98  0.001797  ( 0.027322  0.032409 -0.000000)
 31:   1159.01   0.011756   59.41  0.003165  ( 0.043801  0.035308 -0.000000)
 32:   1215.34   0.089472  452.15  0.022974  (-0.147057 -0.036713  0.000000)
 33:   1235.87   0.033588  169.74  0.008481  (-0.090905 -0.014742  0.000000)
 34:   1301.92   0.090730  458.51  0.021748  (-0.056325 -0.136290  0.000000)
 35:   1357.42   0.061658  311.59  0.014175  ( 0.022698 -0.116875 -0.000000)
 36:   1402.59   0.003516   17.77  0.000782  (-0.000446  0.027966 -0.000000)
 37:   1479.76   0.011982   60.55  0.002527  (-0.050180 -0.002973  0.000000)
 38:   1516.60   0.022413  113.26  0.004612  ( 0.067904  0.000865  0.000000)
 39:   1645.74   0.003859   19.50  0.000732  ( 0.026838 -0.003370 -0.000000)
 40:   1672.29   0.021112  106.69  0.003940  ( 0.022922  0.058431  0.000000)
 41:   1749.02   0.125414  633.79  0.022377  ( 0.114811 -0.095891  0.000000)
 42:   3228.39   0.000463    2.34  0.000045  ( 0.006682 -0.000378 -0.000000)
 43:   3241.25   0.001596    8.07  0.000154  (-0.008891  0.008640 -0.000000)
 44:   3252.99   0.001165    5.89  0.000112  (-0.002599 -0.010248 -0.000000)
 45:   3276.54   0.001156    5.84  0.000110  ( 0.008199  0.006548  0.000000)
 46:   3463.93   0.113040  571.26  0.010184  ( 0.001950  0.100896  0.000000)
 47:   3773.51   0.040012  202.20  0.003309  ( 0.056355 -0.011532 -0.000000)

--------------------------
THERMOCHEMISTRY AT 298.15K
--------------------------

Temperature         ... 298.15 K
Pressure            ... 1.00 atm
Total Mass          ... 138.12 AMU

Throughout the following assumptions are being made:
  (1) The electronic state is orbitally nondegenerate
  (2) There are no thermally accessible electronically excited states
  (3) Hindered rotations indicated by low frequency modes are not
      treated as such but are treated as vibrations and this may
      cause some error
  (4) All equations used are the standard statistical mechanics
      equations for an ideal gas
  (5) All vibrations are strictly harmonic

freq.      94.41  E(vib)   ...       0.47
freq.     112.14  E(vib)   ...       0.45
freq.     238.26  E(vib)   ...       0.32
freq.     254.40  E(vib)   ...       0.30
freq.     304.59  E(vib)   ...       0.26
freq.     369.68  E(vib)   ...       0.21
freq.     436.75  E(vib)   ...       0.17
freq.     444.47  E(vib)   ...       0.17
freq.     523.62  E(vib)   ...       0.13
freq.     538.43  E(vib)   ...       0.12
freq.     566.57  E(vib)   ...       0.11
freq.     661.71  E(vib)   ...       0.08
freq.     697.62  E(vib)   ...       0.07
freq.     707.17  E(vib)   ...       0.07
freq.     746.11  E(vib)   ...       0.06
freq.     767.06  E(vib)   ...       0.06
freq.     797.59  E(vib)   ...       0.05
freq.     845.24  E(vib)   ...       0.04
freq.     864.95  E(vib)   ...       0.04
freq.     952.16  E(vib)   ...       0.03
freq.    1010.67  E(vib)   ...       0.02
freq.    1039.93  E(vib)   ...       0.02
freq.    1060.80  E(vib)   ...       0.02
freq.    1102.05  E(vib)   ...       0.02
freq.    1133.29  E(vib)   ...       0.01
freq.    1159.01  E(vib)   ...       0.01
freq.    1215.34  E(vib)   ...       0.01
freq.    1235.87  E(vib)   ...       0.01
freq.    1301.92  E(vib)   ...       0.01
freq.    1357.42  E(vib)   ...       0.01
freq.    1402.59  E(vib)   ...       0.00
freq.    1479.76  E(vib)   ...       0.00
freq.    1516.60  E(vib)   ...       0.00
freq.    1645.74  E(vib)   ...       0.00
freq.    1672.29  E(vib)   ...       0.00
freq.    1749.02  E(vib)   ...       0.00
freq.    3228.39  E(vib)   ...       0.00
freq.    3241.25  E(vib)   ...       0.00
freq.    3252.99  E(vib)   ...       0.00
freq.    3276.54  E(vib)   ...       0.00
freq.    3463.93  E(vib)   ...       0.00
freq.    3773.51  E(vib)   ...       0.00

------------
INNER ENERGY
------------

The inner energy is: U= E(el) + E(ZPE) + E(vib) + E(rot) + E(trans)
    E(el)   - is the total energy from the electronic structure calculation
              = E(kin-el) + E(nuc-el) + E(el-el) + E(nuc-nuc)
    E(ZPE)  - the the zero temperature vibrational energy from the frequency calculation
    E(vib)  - the the finite temperature correction to E(ZPE) due to population
              of excited vibrational states
    E(rot)  - is the rotational thermal energy
    E(trans)- is the translational thermal energy

Summary of contributions to the inner energy U:
Electronic energy                ...   -495.43320340 Eh
Zero point energy                ...      0.11901563 Eh      74.68 kcal/mol
Thermal vibrational correction   ...      0.00534719 Eh       3.36 kcal/mol
Thermal rotational correction    ...      0.00141627 Eh       0.89 kcal/mol
Thermal translational correction ...      0.00141627 Eh       0.89 kcal/mol
-----------------------------------------------------------------------
Total thermal energy                   -495.30600803 Eh

Summary of corrections to the electronic energy:
(perhaps to be used in another calculation)
Total thermal correction                  0.00817973 Eh       5.13 kcal/mol
Non-thermal (ZPE) correction              0.11901563 Eh      74.68 kcal/mol
-----------------------------------------------------------------------
Total correction                          0.12719536 Eh      79.82 kcal/mol

--------
ENTHALPY
--------

The enthalpy is H = U + kB*T
                kB is Boltzmann's constant
Total free energy                 ...   -495.30600803 Eh
Thermal Enthalpy correction       ...      0.00094421 Eh       0.59 kcal/mol
-----------------------------------------------------------------------
Total Enthalpy                    ...   -495.30506382 Eh

Note: Rotational entropy computed according to Herzberg
Infrared and Raman Spectra, Chapter V,1, Van Nostrand Reinhold, 1945
Point Group:  Cs, Symmetry Number:   1
Rotational constants in cm-1:     0.077337     0.040588     0.026618

Vibrational entropy computed according to the QRRHO of S. Grimme
Chem.Eur.J. 2012 18 9955

-------
ENTROPY
-------

The entropy contributions are T*S = T*(S(el)+S(vib)+S(rot)+S(trans))
     S(el)   - electronic entropy
     S(vib)  - vibrational entropy
     S(rot)  - rotational entropy
     S(trans)- translational entropy
The entropies will be listed as multiplied by the temperature to get
units of energy

Electronic entropy                ...      0.00000000 Eh      0.00 kcal/mol
Vibrational entropy               ...      0.00868801 Eh      5.45 kcal/mol
Rotational entropy                ...      0.01394374 Eh      8.75 kcal/mol
Translational entropy             ...      0.01932865 Eh     12.13 kcal/mol
-----------------------------------------------------------------------
Final entropy term                ...      0.04196040 Eh     26.33 kcal/mol

In case the symmetry of your molecule has not been determined correctly
or in case you have a reason to use a different symmetry number we print
out the resulting rotational entropy values for sn=1,12 :
 --------------------------------------------------------
|  sn= 1 | S(rot)=       0.01394374 Eh      8.75 kcal/mol|
|  sn= 2 | S(rot)=       0.01328929 Eh      8.34 kcal/mol|
|  sn= 3 | S(rot)=       0.01290645 Eh      8.10 kcal/mol|
|  sn= 4 | S(rot)=       0.01263483 Eh      7.93 kcal/mol|
|  sn= 5 | S(rot)=       0.01242414 Eh      7.80 kcal/mol|
|  sn= 6 | S(rot)=       0.01225200 Eh      7.69 kcal/mol|
|  sn= 7 | S(rot)=       0.01210645 Eh      7.60 kcal/mol|
|  sn= 8 | S(rot)=       0.01198037 Eh      7.52 kcal/mol|
|  sn= 9 | S(rot)=       0.01186916 Eh      7.45 kcal/mol|
|  sn=10 | S(rot)=       0.01176969 Eh      7.39 kcal/mol|
|  sn=11 | S(rot)=       0.01167970 Eh      7.33 kcal/mol|
|  sn=12 | S(rot)=       0.01159754 Eh      7.28 kcal/mol|
 --------------------------------------------------------

-------------------
GIBBS FREE ENERGY
-------------------

The Gibbs free energy is G = H - T*S

Total enthalpy                    ...   -495.30506382 Eh
Total entropy correction          ...     -0.04196040 Eh    -26.33 kcal/mol
-----------------------------------------------------------------------
Final Gibbs free energy         ...   -495.34702422 Eh

                             ****ORCA TERMINATED NORMALLY****
TOTAL RUN TIME: 0 days 0 hours 4 minutes 16 seconds 87 msec
